<?xml version="1.0" encoding="UTF-8"?>

<!-- generated on 2024-02-28 17:33:14 by Eclipse SUMO GUI Version 1.19.0
<configuration xmlns:xsi="http://www.w3.org/2001/XMLSchema-instance" xsi:noNamespaceSchemaLocation="http://sumo.dlr.de/xsd/sumoConfiguration.xsd">

    <input>
        <net-file value="C:\Users\sader\PycharmProjects\OOP_Test\test\osm.net.xml"/>
        <route-files value="C:\Users\sader\PycharmProjects\OOP_Test\test\osm_pt.rou.xml"/>
        <additional-files value="C:\Users\sader\PycharmProjects\OOP_Test\test\osm_polygons.add.xml,C:\Users\sader\PycharmProjects\OOP_Test\test\basic.vType.xml,C:\Users\sader\PycharmProjects\OOP_Test\test\osm_stops.add.xml,C:\Users\sader\PycharmProjects\OOP_Test\test\osm_complete_parking_areas.add.xml,C:\Users\sader\PycharmProjects\OOP_Test\test\         osm_parking_rerouters.add.xml,C:\Users\sader\PycharmProjects\OOP_Test\test\osm_taxi_stands.add.xml,C:\Users\sader\PycharmProjects\OOP_Test\test\osm_taxi_rerouters.add.xml"/>
    </input>

    <output>
        <output-prefix value="output."/>
        <summary-output value="C:\Users\sader\PycharmProjects\OOP_Test\test\summary.xml"/>
        <person-summary-output value="C:\Users\sader\PycharmProjects\OOP_Test\test\person.summary.xml"/>
        <tripinfo-output value="C:\Users\sader\PycharmProjects\OOP_Test\test\tripinfo.xml"/>
        <tripinfo-output.write-unfinished value="false"/>
        <statistic-output value="C:\Users\sader\PycharmProjects\OOP_Test\test\statistics.xml"/>
    </output>

    <time>
        <begin value="0.0"/>
        <end value="86400.0"/>
        <step-length value="1"/>
    </time>

    <processing>
        <lateral-resolution value="0.8"/>
        <ignore-junction-blocker value="60"/>
        <ignore-route-errors value="true"/>
        <collision.action value="teleport"/>
        <time-to-teleport value="300"/>
        <max-depart-delay value="900"/>
        <time-to-impatience value="120"/>
        <parking.maneuver value="true"/>
        <pedestrian.model value="striping"/>
        <pedestrian.striping.stripe-width value="0.55"/>
        <pedestrian.striping.dawdling value="0.2"/>
        <pedestrian.striping.jamtime value="60"/>
        <pedestrian.striping.jamtime.crossing value="10"/>
        <pedestrian.striping.reserve-oncoming value="0.25"/>
        <pedestrian.striping.reserve-oncoming.junctions value="0.34"/>
        <ride.stop-tolerance value="25"/>
    </processing>

    <routing>
        <routing-algorithm value="astar"/>
        <persontrip.walkfactor value="0.75"/>
        <persontrip.transfer.car-walk value="parkingAreas,allJunctions"/>
        <persontrip.transfer.taxi-walk value="parkingAreas,allJunctions"/>
        <persontrip.transfer.walk-taxi value="parkingAreas,allJunctions"/>
        <persontrip.taxi.waiting-time value="300"/>
        <device.rerouting.probability value="1"/>
        <device.rerouting.period value="300"/>
        <device.rerouting.pre-period value="300"/>
        <device.rerouting.bike-speeds value="true"/>
        <person-device.rerouting.probability value="1"/>
        <person-device.rerouting.period value="300"/>
    </routing>

    <report>
        <verbose value="true"/>
        <no-warnings value="false"/>
        <duration-log.disable value="false"/>
        <duration-log.statistics value="true"/>
        <no-step-log value="false"/>
    </report>

    <taxi_device>
        <device.taxi.dispatch-algorithm value="greedy"/>
        <device.taxi.dispatch-algorithm.output value="C:\Users\sader\PycharmProjects\OOP_Test\test\taxi.dispatch.xml"/>
        <device.taxi.dispatch-period value="60"/>
        <device.taxi.idle-algorithm value="stop"/>
        <device.taxi.idle-algorithm.output value="C:\Users\sader\PycharmProjects\OOP_Test\test\taxi.idle.xml"/>
    </taxi_device>

    <random_number>
        <seed value="42"/>
    </random_number>

    <gui_only>
        <gui-settings-file value="C:\Users\sader\PycharmProjects\OOP_Test\test\default-gui.xml"/>
    </gui_only>

</configuration>
-->

<tripinfos xmlns:xsi="http://www.w3.org/2001/XMLSchema-instance" xsi:noNamespaceSchemaLocation="http://sumo.dlr.de/xsd/tripinfo_file.xsd">
    <tripinfo id="pt_train_RE_5:0.0" depart="14415.00" departLane="156199094#3_0" departPos="135.10" departPosLat="0.00" departSpeed="0.00" departDelay="0.00" arrival="14732.00" arrivalLane="48316096#2_0" arrivalPos="589.00" arrivalPosLat="0.00" arrivalSpeed="7.75" duration="317.00" routeLength="4125.58" waitingTime="0.00" waitingCount="0" stopTime="60.00" timeLoss="158.59" rerouteNo="0" devices="tripinfo_pt_train_RE_5:0.0 routing_pt_train_RE_5:0.0" vType="pt_train" speedFactor="1.00" vaporized=""/>
    <tripinfo id="pt_bus_61:1.0" depart="14465.00" departLane="431444776_0" departPos="12.10" departPosLat="0.00" departSpeed="0.00" departDelay="0.00" arrival="14743.00" arrivalLane="-676917368#0_0" arrivalPos="20.90" arrivalPosLat="0.00" arrivalSpeed="0.62" duration="278.00" routeLength="1043.42" waitingTime="32.00" waitingCount="4" stopTime="123.00" timeLoss="74.30" rerouteNo="0" devices="tripinfo_pt_bus_61:1.0 routing_pt_bus_61:1.0" vType="pt_bus" speedFactor="1.00" vaporized=""/>
    <tripinfo id="pt_light_rail_U13:0.0" depart="14560.00" departLane="673171637_0" departPos="105.37" departPosLat="0.00" departSpeed="0.00" departDelay="0.00" arrival="14802.00" arrivalLane="172027782#6_0" arrivalPos="1424.64" arrivalPosLat="0.00" arrivalSpeed="1.00" duration="242.00" routeLength="1866.43" waitingTime="0.00" waitingCount="0" stopTime="120.00" timeLoss="54.77" rerouteNo="0" devices="tripinfo_pt_light_rail_U13:0.0 routing_pt_light_rail_U13:0.0" vType="pt_light_rail" speedFactor="1.00" vaporized=""/>
    <tripinfo id="pt_bus_121:0.0" depart="14531.00" departLane="-392589607#0_1" departPos="12.10" departPosLat="0.00" departSpeed="0.00" departDelay="0.00" arrival="14809.00" arrivalLane="-44459774#2_1" arrivalPos="81.33" arrivalPosLat="0.00" arrivalSpeed="5.87" duration="278.00" routeLength="1550.58" waitingTime="1.00" waitingCount="1" stopTime="121.00" timeLoss="44.35" rerouteNo="0" devices="tripinfo_pt_bus_121:0.0 routing_pt_bus_121:0.0" vType="pt_bus" speedFactor="1.00" vaporized=""/>
    <tripinfo id="pt_light_rail_U13:1.0" depart="14560.00" departLane="68552415#0_0" departPos="109.60" departPosLat="0.00" departSpeed="0.00" departDelay="0.00" arrival="14814.00" arrivalLane="172027783_0" arrivalPos="98.63" arrivalPosLat="0.00" arrivalSpeed="1.00" duration="254.00" routeLength="1860.55" waitingTime="0.00" waitingCount="0" stopTime="120.00" timeLoss="66.98" rerouteNo="0" devices="tripinfo_pt_light_rail_U13:1.0 routing_pt_light_rail_U13:1.0" vType="pt_light_rail" speedFactor="1.00" vaporized=""/>
    <tripinfo id="pt_bus_104:2.0" depart="14705.00" departLane="-38509828#3_1" departPos="12.10" departPosLat="0.00" departSpeed="0.00" departDelay="0.00" arrival="14842.00" arrivalLane="-38509828#0_1" arrivalPos="131.86" arrivalPosLat="0.00" arrivalSpeed="8.09" duration="137.00" routeLength="467.72" waitingTime="0.00" waitingCount="0" stopTime="61.00" timeLoss="19.10" rerouteNo="0" devices="tripinfo_pt_bus_104:2.0 routing_pt_bus_104:2.0" vType="pt_bus" speedFactor="1.00" vaporized=""/>
    <tripinfo id="pt_bus_816:0.0" depart="14417.00" departLane="161599839#0_0" departPos="12.10" departPosLat="0.00" departSpeed="0.00" departDelay="0.00" arrival="14880.00" arrivalLane="294067066#10_1" arrivalPos="43.06" arrivalPosLat="0.00" arrivalSpeed="3.89" duration="463.00" routeLength="2276.57" waitingTime="32.00" waitingCount="6" stopTime="159.00" timeLoss="94.36" rerouteNo="0" devices="tripinfo_pt_bus_816:0.0 routing_pt_bus_816:0.0" vType="pt_bus" speedFactor="1.00" vaporized=""/>
    <tripinfo id="pt_bus_104:3.0" depart="14721.00" departLane="-38509828#3_1" departPos="12.10" departPosLat="0.00" departSpeed="0.00" departDelay="0.00" arrival="14881.00" arrivalLane="-38509828#0_1" arrivalPos="131.86" arrivalPosLat="0.00" arrivalSpeed="8.32" duration="160.00" routeLength="467.72" waitingTime="16.00" waitingCount="1" stopTime="63.00" timeLoss="40.13" rerouteNo="0" devices="tripinfo_pt_bus_104:3.0 routing_pt_bus_104:3.0" vType="pt_bus" speedFactor="1.00" vaporized=""/>
    <tripinfo id="pt_bus_61:0.0" depart="14460.00" departLane="-26263195#1_1" departPos="0.27" departPosLat="0.00" departSpeed="0.00" departDelay="0.00" arrival="14906.00" arrivalLane="-431444776_0" arrivalPos="33.25" arrivalPosLat="0.00" arrivalSpeed="1.33" duration="446.00" routeLength="1553.64" waitingTime="61.00" waitingCount="6" stopTime="165.00" timeLoss="143.41" rerouteNo="0" devices="tripinfo_pt_bus_61:0.0 routing_pt_bus_61:0.0" vType="pt_bus" speedFactor="1.00" vaporized=""/>
    <tripinfo id="pt_bus_816:1.0" depart="14547.00" departLane="-294067066#1_1" departPos="12.10" departPosLat="0.00" departSpeed="0.00" departDelay="0.00" arrival="14959.00" arrivalLane="161599839#0_0" arrivalPos="17.33" arrivalPosLat="0.00" arrivalSpeed="1.67" duration="412.00" routeLength="2055.72" waitingTime="9.00" waitingCount="3" stopTime="156.00" timeLoss="63.87" rerouteNo="0" devices="tripinfo_pt_bus_816:1.0 routing_pt_bus_816:1.0" vType="pt_bus" speedFactor="1.00" vaporized=""/>
    <tripinfo id="pt_light_rail_U8:1.0" depart="14502.00" departLane="26946520#0_0" departPos="109.60" departPosLat="0.00" departSpeed="0.00" departDelay="0.00" arrival="15000.00" arrivalLane="40985104#3_0" arrivalPos="2315.87" arrivalPosLat="0.00" arrivalSpeed="1.00" duration="498.00" routeLength="4576.89" waitingTime="0.00" waitingCount="0" stopTime="210.00" timeLoss="123.20" rerouteNo="0" devices="tripinfo_pt_light_rail_U8:1.0 routing_pt_light_rail_U8:1.0" vType="pt_light_rail" speedFactor="1.00" vaporized=""/>
    <tripinfo id="pt_light_rail_U8:0.0" depart="14498.00" departLane="89344777#0_0" departPos="109.60" departPosLat="0.00" departSpeed="0.00" departDelay="0.00" arrival="15056.00" arrivalLane="26946516#1_0" arrivalPos="1881.79" arrivalPosLat="0.00" arrivalSpeed="27.78" duration="558.00" routeLength="5963.26" waitingTime="0.00" waitingCount="0" stopTime="210.00" timeLoss="132.34" rerouteNo="0" devices="tripinfo_pt_light_rail_U8:0.0 routing_pt_light_rail_U8:0.0" vType="pt_light_rail" speedFactor="1.00" vaporized=""/>
    <tripinfo id="pt_light_rail_U7:1.0" depart="14566.00" departLane="26946520#0_0" departPos="109.60" departPosLat="0.00" departSpeed="0.00" departDelay="0.00" arrival="15064.00" arrivalLane="40985104#3_0" arrivalPos="2315.87" arrivalPosLat="0.00" arrivalSpeed="1.00" duration="498.00" routeLength="4576.89" waitingTime="0.00" waitingCount="0" stopTime="210.00" timeLoss="123.20" rerouteNo="0" devices="tripinfo_pt_light_rail_U7:1.0 routing_pt_light_rail_U7:1.0" vType="pt_light_rail" speedFactor="1.00" vaporized=""/>
    <tripinfo id="pt_light_rail_U7:0.0" depart="14565.00" departLane="89344777#0_0" departPos="109.60" departPosLat="0.00" departSpeed="0.00" departDelay="0.00" arrival="15123.00" arrivalLane="26946516#1_0" arrivalPos="1881.79" arrivalPosLat="0.00" arrivalSpeed="27.78" duration="558.00" routeLength="5963.26" waitingTime="0.00" waitingCount="0" stopTime="210.00" timeLoss="132.34" rerouteNo="0" devices="tripinfo_pt_light_rail_U7:0.0 routing_pt_light_rail_U7:0.0" vType="pt_light_rail" speedFactor="1.00" vaporized=""/>
    <tripinfo id="pt_bus_121:1.0" depart="14883.00" departLane="44459774#2_1" departPos="12.10" departPosLat="0.00" departSpeed="0.00" departDelay="0.00" arrival="15192.00" arrivalLane="392589607#3_1" arrivalPos="0.20" arrivalPosLat="0.00" arrivalSpeed="1.05" duration="309.00" routeLength="1662.50" waitingTime="2.00" waitingCount="2" stopTime="145.00" timeLoss="42.85" rerouteNo="0" devices="tripinfo_pt_bus_121:1.0 routing_pt_bus_121:1.0" vType="pt_bus" speedFactor="1.00" vaporized=""/>
    <tripinfo id="pt_light_rail_U9:0.0" depart="14993.00" departLane="673171637_0" departPos="105.37" departPosLat="0.00" departSpeed="0.00" departDelay="0.00" arrival="15200.00" arrivalLane="172027782#6_0" arrivalPos="1424.64" arrivalPosLat="0.00" arrivalSpeed="27.78" duration="207.00" routeLength="1866.43" waitingTime="0.00" waitingCount="0" stopTime="90.00" timeLoss="49.35" rerouteNo="0" devices="tripinfo_pt_light_rail_U9:0.0 routing_pt_light_rail_U9:0.0" vType="pt_light_rail" speedFactor="1.00" vaporized=""/>
    <tripinfo id="pt_bus_138:1.0" depart="14908.00" departLane="-387498880#1_1" departPos="12.10" departPosLat="0.00" departSpeed="0.00" departDelay="0.00" arrival="15215.00" arrivalLane="-38509828#0_1" arrivalPos="131.86" arrivalPosLat="0.00" arrivalSpeed="8.21" duration="307.00" routeLength="2082.25" waitingTime="2.00" waitingCount="1" stopTime="99.00" timeLoss="47.31" rerouteNo="0" devices="tripinfo_pt_bus_138:1.0 routing_pt_bus_138:1.0" vType="pt_bus" speedFactor="1.00" vaporized=""/>
    <tripinfo id="pt_bus_119:0.0" depart="14531.00" departLane="268558823#1_0" departPos="12.10" departPosLat="0.00" departSpeed="0.00" departDelay="0.00" arrival="15235.00" arrivalLane="10492738_0" arrivalPos="55.26" arrivalPosLat="0.00" arrivalSpeed="0.72" duration="704.00" routeLength="3482.05" waitingTime="163.00" waitingCount="10" stopTime="155.00" timeLoss="294.57" rerouteNo="0" devices="tripinfo_pt_bus_119:0.0 routing_pt_bus_119:0.0" vType="pt_bus" speedFactor="1.00" vaporized=""/>
    <tripinfo id="pt_light_rail_U9:1.0" depart="14998.00" departLane="68552415#0_0" departPos="109.60" departPosLat="0.00" departSpeed="0.00" departDelay="0.00" arrival="15252.00" arrivalLane="172027783_0" arrivalPos="98.63" arrivalPosLat="0.00" arrivalSpeed="1.00" duration="254.00" routeLength="1860.55" waitingTime="0.00" waitingCount="0" stopTime="120.00" timeLoss="66.98" rerouteNo="0" devices="tripinfo_pt_light_rail_U9:1.0 routing_pt_light_rail_U9:1.0" vType="pt_light_rail" speedFactor="1.00" vaporized=""/>
</tripinfos>
