<?xml version="1.0" encoding="UTF-8"?>

<!-- generated on 2025-03-22 11:48:50 by Eclipse SUMO sumo Version 1.19.0
<configuration xmlns:xsi="http://www.w3.org/2001/XMLSchema-instance" xsi:noNamespaceSchemaLocation="http://sumo.dlr.de/xsd/sumoConfiguration.xsd">

    <input>
        <net-file value="Simulation\crr.net.xml"/>
        <route-files value="Simulation\flows.rou.xml"/>
        <additional-files value="Simulation\osm_polygons.add.xml,Simulation\ basic.vType.xml,Simulation\ additional.xml,Simulation\ data.rou.xml"/>
    </input>

    <output>
        <output-prefix value="output."/>
        <emission-output value="emissions.xml"/>
        <summary-output value="Simulation\summary.xml"/>
        <person-summary-output value="Simulation\person.summary.xml"/>
        <tripinfo-output value="Simulation\tripinfo.xml"/>
        <tripinfo-output.write-unfinished value="false"/>
        <statistic-output value="Simulation\statistics.xml"/>
    </output>

    <processing>
        <lateral-resolution value="0.8"/>
        <ignore-junction-blocker value="60"/>
        <ignore-route-errors value="true"/>
        <collision.action value="teleport"/>
        <time-to-teleport value="300"/>
        <max-depart-delay value="900"/>
        <time-to-impatience value="120"/>
        <parking.maneuver value="true"/>
        <pedestrian.model value="striping"/>
        <pedestrian.striping.stripe-width value="0.55"/>
        <pedestrian.striping.dawdling value="0.2"/>
        <pedestrian.striping.jamtime value="60"/>
        <pedestrian.striping.jamtime.crossing value="10"/>
        <pedestrian.striping.reserve-oncoming value="0.25"/>
        <pedestrian.striping.reserve-oncoming.junctions value="0.34"/>
        <ride.stop-tolerance value="25"/>
    </processing>

    <routing>
        <routing-algorithm value="astar"/>
        <persontrip.walkfactor value="0.75"/>
        <persontrip.transfer.car-walk value="parkingAreas,allJunctions"/>
        <persontrip.transfer.taxi-walk value="parkingAreas,allJunctions"/>
        <persontrip.transfer.walk-taxi value="parkingAreas,allJunctions"/>
        <persontrip.taxi.waiting-time value="300"/>
        <device.rerouting.probability value="1"/>
        <device.rerouting.period value="300"/>
        <device.rerouting.pre-period value="300"/>
        <device.rerouting.threads value="64"/>
        <device.rerouting.bike-speeds value="true"/>
        <person-device.rerouting.probability value="1"/>
        <person-device.rerouting.period value="300"/>
    </routing>

    <report>
        <verbose value="true"/>
        <no-warnings value="true"/>
        <duration-log.disable value="false"/>
        <duration-log.statistics value="true"/>
        <no-step-log value="false"/>
        <step-log.period value="100"/>
    </report>

    <taxi_device>
        <device.taxi.dispatch-algorithm value="greedy"/>
        <device.taxi.dispatch-algorithm.output value="Simulation\taxi.dispatch.xml"/>
        <device.taxi.dispatch-period value="60"/>
        <device.taxi.idle-algorithm value="stop"/>
        <device.taxi.idle-algorithm.output value="Simulation\taxi.idle.xml"/>
    </taxi_device>

    <traci_server>
        <remote-port value="49789"/>
    </traci_server>

    <random_number>
        <seed value="42"/>
    </random_number>

    <gui_only>
        <gui-settings-file value="Simulation\default-gui.xml"/>
    </gui_only>

</configuration>
-->

<emission-export xmlns:xsi="http://www.w3.org/2001/XMLSchema-instance" xsi:noNamespaceSchemaLocation="http://sumo.dlr.de/xsd/emission_file.xsd">
    <timestep time="0.00">
        <vehicle id="p0_0" eclass="Zero/default" CO2="0.00" CO="0.00" HC="0.00" NOx="0.00" PMx="0.00" fuel="0.00" electricity="0.00" noise="0.00" route="!p0_0!var#1" type="bicycle" waiting="0.00" lane="25935612#1_1" pos="1.70" speed="0.00" angle="91.07" x="8777.59" y="1720.53"/>
        <vehicle id="pt_bus_102:0.0" eclass="HBEFA3/Bus" CO2="5286.11" CO="20.17" HC="4.85" NOx="60.75" PMx="2.01" fuel="1671.11" electricity="0.00" noise="67.11" route="pt_bus_102:0" type="pt_bus" waiting="0.00" lane="169225673_1" pos="12.10" speed="0.00" angle="212.96" x="8585.61" y="1372.65"/>
        <vehicle id="pt_bus_102:1.0" eclass="HBEFA3/Bus" CO2="5286.11" CO="20.17" HC="4.85" NOx="60.75" PMx="2.01" fuel="1671.11" electricity="0.00" noise="67.11" route="pt_bus_102:1" type="pt_bus" waiting="0.00" lane="-384172580#0_1" pos="12.10" speed="0.00" angle="199.15" x="9078.11" y="2157.38"/>
        <vehicle id="pt_bus_102:2.0" eclass="HBEFA3/Bus" CO2="5286.11" CO="20.17" HC="4.85" NOx="60.75" PMx="2.01" fuel="1671.11" electricity="0.00" noise="67.11" route="pt_bus_102:2" type="pt_bus" waiting="0.00" lane="899604572#2_1" pos="12.10" speed="0.00" angle="132.58" x="2477.41" y="3475.92"/>
        <vehicle id="pt_bus_102:4.0" eclass="HBEFA3/Bus" CO2="5286.11" CO="20.17" HC="4.85" NOx="60.75" PMx="2.01" fuel="1671.11" electricity="0.00" noise="67.11" route="pt_bus_102:4" type="pt_bus" waiting="0.00" lane="-394615943_1" pos="12.10" speed="0.00" angle="258.17" x="9528.11" y="1521.44"/>
        <vehicle id="pt_bus_103:3.0" eclass="HBEFA3/Bus" CO2="5286.11" CO="20.17" HC="4.85" NOx="60.75" PMx="2.01" fuel="1671.11" electricity="0.00" noise="67.11" route="pt_bus_103:3" type="pt_bus" waiting="0.00" lane="243216856_0" pos="12.10" speed="0.00" angle="231.32" x="1527.20" y="5474.79"/>
        <vehicle id="pt_bus_104:0.0" eclass="HBEFA3/Bus" CO2="5286.11" CO="20.17" HC="4.85" NOx="60.75" PMx="2.01" fuel="1671.11" electricity="0.00" noise="67.11" route="pt_bus_104:0" type="pt_bus" waiting="0.00" lane="386500268#1_1" pos="12.10" speed="0.00" angle="119.00" x="4842.61" y="3118.59"/>
        <vehicle id="pt_bus_104:2.0" eclass="HBEFA3/Bus" CO2="5286.11" CO="20.17" HC="4.85" NOx="60.75" PMx="2.01" fuel="1671.11" electricity="0.00" noise="67.11" route="pt_bus_104:2" type="pt_bus" waiting="0.00" lane="-207082664_1" pos="12.10" speed="0.00" angle="308.80" x="8818.99" y="630.24"/>
        <vehicle id="pt_bus_105:0.0" eclass="HBEFA3/Bus" CO2="5286.11" CO="20.17" HC="4.85" NOx="60.75" PMx="2.01" fuel="1671.11" electricity="0.00" noise="67.11" route="pt_bus_105:0" type="pt_bus" waiting="0.00" lane="675674221_1" pos="12.10" speed="0.00" angle="28.19" x="5857.18" y="4004.61"/>
        <vehicle id="pt_bus_108:0.0" eclass="HBEFA3/Bus" CO2="5286.11" CO="20.17" HC="4.85" NOx="60.75" PMx="2.01" fuel="1671.11" electricity="0.00" noise="67.11" route="pt_bus_108:0" type="pt_bus" waiting="0.00" lane="-386500268#0_1" pos="12.10" speed="0.00" angle="295.72" x="4816.69" y="3135.60"/>
        <vehicle id="pt_bus_108:1.0" eclass="HBEFA3/Bus" CO2="5286.11" CO="20.17" HC="4.85" NOx="60.75" PMx="2.01" fuel="1671.11" electricity="0.00" noise="67.11" route="!pt_bus_108:1.0!var#1" type="pt_bus" waiting="0.00" lane="-26685613_1" pos="12.10" speed="0.00" angle="56.77" x="7510.19" y="5401.50"/>
        <vehicle id="pt_bus_109:0.0" eclass="HBEFA3/Bus" CO2="5286.11" CO="20.17" HC="4.85" NOx="60.75" PMx="2.01" fuel="1671.11" electricity="0.00" noise="67.11" route="pt_bus_109:0" type="pt_bus" waiting="0.00" lane="156260258_1" pos="12.10" speed="0.00" angle="139.31" x="4771.20" y="3155.61"/>
        <vehicle id="pt_bus_109:1.0" eclass="HBEFA3/Bus" CO2="5286.11" CO="20.17" HC="4.85" NOx="60.75" PMx="2.01" fuel="1671.11" electricity="0.00" noise="67.11" route="pt_bus_109:1" type="pt_bus" waiting="0.00" lane="387117388_1" pos="1.30" speed="0.00" angle="230.40" x="3458.93" y="5929.00"/>
        <vehicle id="pt_bus_110:1.0" eclass="HBEFA3/Bus" CO2="5286.11" CO="20.17" HC="4.85" NOx="60.75" PMx="2.01" fuel="1671.11" electricity="0.00" noise="67.11" route="pt_bus_110:1" type="pt_bus" waiting="0.00" lane="1028791820_1" pos="12.10" speed="0.00" angle="157.40" x="5952.36" y="5684.52"/>
        <vehicle id="pt_bus_111:1.0" eclass="HBEFA3/Bus" CO2="5286.11" CO="20.17" HC="4.85" NOx="60.75" PMx="2.01" fuel="1671.11" electricity="0.00" noise="67.11" route="pt_bus_111:1" type="pt_bus" waiting="0.00" lane="-387155257#0_1" pos="12.10" speed="0.00" angle="296.99" x="4214.45" y="4053.14"/>
        <vehicle id="pt_bus_114:0.0" eclass="HBEFA3/Bus" CO2="5286.11" CO="20.17" HC="4.85" NOx="60.75" PMx="2.01" fuel="1671.11" electricity="0.00" noise="67.11" route="pt_bus_114:0" type="pt_bus" waiting="0.00" lane="384972991#1_1" pos="12.10" speed="0.00" angle="296.40" x="4859.71" y="3098.64"/>
        <vehicle id="pt_bus_114:1.0" eclass="HBEFA3/Bus" CO2="5286.11" CO="20.17" HC="4.85" NOx="60.75" PMx="2.01" fuel="1671.11" electricity="0.00" noise="67.11" route="pt_bus_114:1" type="pt_bus" waiting="0.00" lane="-846930959_1" pos="12.10" speed="0.00" angle="267.71" x="8833.73" y="2805.22"/>
        <vehicle id="pt_bus_114:5.0" eclass="HBEFA3/Bus" CO2="5286.11" CO="20.17" HC="4.85" NOx="60.75" PMx="2.01" fuel="1671.11" electricity="0.00" noise="67.11" route="pt_bus_114:5" type="pt_bus" waiting="0.00" lane="-390841675_1" pos="12.10" speed="0.00" angle="94.53" x="9412.34" y="6342.47"/>
        <vehicle id="pt_bus_115:0.0" eclass="HBEFA3/Bus" CO2="5286.11" CO="20.17" HC="4.85" NOx="60.75" PMx="2.01" fuel="1671.11" electricity="0.00" noise="67.11" route="pt_bus_115:0" type="pt_bus" waiting="0.00" lane="-383983728_1" pos="12.10" speed="0.00" angle="141.18" x="3078.33" y="4065.63"/>
        <vehicle id="pt_bus_119:0.0" eclass="HBEFA3/Bus" CO2="5286.11" CO="20.17" HC="4.85" NOx="60.75" PMx="2.01" fuel="1671.11" electricity="0.00" noise="67.11" route="pt_bus_119:0" type="pt_bus" waiting="0.00" lane="268558823#1_1" pos="12.10" speed="0.00" angle="296.96" x="4856.46" y="3093.46"/>
        <vehicle id="pt_bus_119:1.0" eclass="HBEFA3/Bus" CO2="5286.11" CO="20.17" HC="4.85" NOx="60.75" PMx="2.01" fuel="1671.11" electricity="0.00" noise="67.11" route="pt_bus_119:1" type="pt_bus" waiting="0.00" lane="569733700#3_1" pos="12.10" speed="0.00" angle="98.44" x="4759.86" y="949.11"/>
        <vehicle id="pt_bus_120:1.0" eclass="HBEFA3/Bus" CO2="5286.11" CO="20.17" HC="4.85" NOx="60.75" PMx="2.01" fuel="1671.11" electricity="0.00" noise="67.11" route="pt_bus_120:1" type="pt_bus" waiting="0.00" lane="177336121_1" pos="12.10" speed="0.00" angle="1.78" x="4811.78" y="730.48"/>
        <vehicle id="pt_bus_121:0.0" eclass="HBEFA3/Bus" CO2="5286.11" CO="20.17" HC="4.85" NOx="60.75" PMx="2.01" fuel="1671.11" electricity="0.00" noise="67.11" route="pt_bus_121:0" type="pt_bus" waiting="0.00" lane="-392589607#0_1" pos="12.10" speed="0.00" angle="116.17" x="6726.60" y="2086.73"/>
        <vehicle id="pt_bus_122:0.0" eclass="HBEFA3/Bus" CO2="5286.11" CO="20.17" HC="4.85" NOx="60.75" PMx="2.01" fuel="1671.11" electricity="0.00" noise="67.11" route="pt_bus_122:0" type="pt_bus" waiting="0.00" lane="-392441930_1" pos="12.10" speed="0.00" angle="297.29" x="4869.59" y="3107.88"/>
        <vehicle id="pt_bus_122:1.0" eclass="HBEFA3/Bus" CO2="5286.11" CO="20.17" HC="4.85" NOx="60.75" PMx="2.01" fuel="1671.11" electricity="0.00" noise="67.11" route="pt_bus_122:1" type="pt_bus" waiting="0.00" lane="101742272#8_1" pos="12.10" speed="0.00" angle="355.02" x="2685.37" y="1004.39"/>
        <vehicle id="pt_bus_130:0.0" eclass="HBEFA3/Bus" CO2="5286.11" CO="20.17" HC="4.85" NOx="60.75" PMx="2.01" fuel="1671.11" electricity="0.00" noise="67.11" route="pt_bus_130:0" type="pt_bus" waiting="0.00" lane="-343305746#1_1" pos="7.47" speed="0.00" angle="102.06" x="1291.56" y="2015.32"/>
        <vehicle id="pt_bus_131:0.0" eclass="HBEFA3/Bus" CO2="5286.11" CO="20.17" HC="4.85" NOx="60.75" PMx="2.01" fuel="1671.11" electricity="0.00" noise="67.11" route="pt_bus_131:0" type="pt_bus" waiting="0.00" lane="675777502_1" pos="12.10" speed="0.00" angle="295.79" x="4777.47" y="3113.16"/>
        <vehicle id="pt_bus_132:0.0" eclass="HBEFA3/Bus" CO2="5286.11" CO="20.17" HC="4.85" NOx="60.75" PMx="2.01" fuel="1671.11" electricity="0.00" noise="67.11" route="pt_bus_132:0" type="pt_bus" waiting="0.00" lane="-394114218#3_1" pos="12.10" speed="0.00" angle="347.70" x="7741.17" y="2321.74"/>
        <vehicle id="pt_bus_138:0.0" eclass="HBEFA3/Bus" CO2="5286.11" CO="20.17" HC="4.85" NOx="60.75" PMx="2.01" fuel="1671.11" electricity="0.00" noise="67.11" route="pt_bus_138:0" type="pt_bus" waiting="0.00" lane="122124925#0_1" pos="0.20" speed="0.00" angle="321.65" x="8420.91" y="4602.73"/>
        <vehicle id="pt_bus_140:0.0" eclass="HBEFA3/Bus" CO2="5286.11" CO="20.17" HC="4.85" NOx="60.75" PMx="2.01" fuel="1671.11" electricity="0.00" noise="67.11" route="pt_bus_140:0" type="pt_bus" waiting="0.00" lane="268558821#1_1" pos="12.10" speed="0.00" angle="295.71" x="4853.17" y="3087.27"/>
        <vehicle id="pt_bus_140:1.0" eclass="HBEFA3/Bus" CO2="5286.11" CO="20.17" HC="4.85" NOx="60.75" PMx="2.01" fuel="1671.11" electricity="0.00" noise="67.11" route="pt_bus_140:1" type="pt_bus" waiting="0.00" lane="-39761675#3_1" pos="12.10" speed="0.00" angle="282.58" x="9107.11" y="1571.52"/>
        <vehicle id="pt_bus_61:0.0" eclass="HBEFA3/Bus" CO2="5286.11" CO="20.17" HC="4.85" NOx="60.75" PMx="2.01" fuel="1671.11" electricity="0.00" noise="67.11" route="pt_bus_61:0" type="pt_bus" waiting="0.00" lane="-540190677_1" pos="12.10" speed="0.00" angle="84.60" x="2479.11" y="5634.21"/>
        <vehicle id="pt_bus_61:1.0" eclass="HBEFA3/Bus" CO2="5286.11" CO="20.17" HC="4.85" NOx="60.75" PMx="2.01" fuel="1671.11" electricity="0.00" noise="67.11" route="pt_bus_61:1" type="pt_bus" waiting="0.00" lane="431444776#1_0" pos="12.10" speed="0.00" angle="161.82" x="2019.06" y="6536.05"/>
        <vehicle id="pt_bus_62:0.0" eclass="HBEFA3/Bus" CO2="5286.11" CO="20.17" HC="4.85" NOx="60.75" PMx="2.01" fuel="1671.11" electricity="0.00" noise="67.11" route="pt_bus_62:0" type="pt_bus" waiting="0.00" lane="27607327#0_1" pos="12.10" speed="0.00" angle="65.96" x="1213.66" y="5136.73"/>
        <vehicle id="pt_bus_65:0.0" eclass="HBEFA3/Bus" CO2="5286.11" CO="20.17" HC="4.85" NOx="60.75" PMx="2.01" fuel="1671.11" electricity="0.00" noise="67.11" route="pt_bus_65:0" type="pt_bus" waiting="0.00" lane="-676917368#0_1" pos="12.10" speed="0.00" angle="151.31" x="2460.19" y="5643.32"/>
        <vehicle id="pt_bus_816:0.0" eclass="HBEFA3/Bus" CO2="5286.11" CO="20.17" HC="4.85" NOx="60.75" PMx="2.01" fuel="1671.11" electricity="0.00" noise="67.11" route="pt_bus_816:0" type="pt_bus" waiting="0.00" lane="29146499#2_1" pos="12.10" speed="0.00" angle="11.70" x="1298.60" y="3382.71"/>
        <vehicle id="pt_bus_816:1.0" eclass="HBEFA3/Bus" CO2="5286.11" CO="20.17" HC="4.85" NOx="60.75" PMx="2.01" fuel="1671.11" electricity="0.00" noise="67.11" route="pt_bus_816:1" type="pt_bus" waiting="0.00" lane="-294067066#1_1" pos="12.10" speed="0.00" angle="305.51" x="1319.84" y="1620.79"/>
        <vehicle id="pt_bus_X20:0.0" eclass="HBEFA3/Bus" CO2="5286.11" CO="20.17" HC="4.85" NOx="60.75" PMx="2.01" fuel="1671.11" electricity="0.00" noise="67.11" route="pt_bus_X20:0" type="pt_bus" waiting="0.00" lane="232962013#1_1" pos="12.10" speed="0.00" angle="161.84" x="6458.76" y="6367.90"/>
        <vehicle id="pt_light_rail_U13:0.0" eclass="Zero/default" CO2="0.00" CO="0.00" HC="0.00" NOx="0.00" PMx="0.00" fuel="0.00" electricity="0.00" noise="0.00" route="pt_light_rail_U13:0" type="pt_light_rail" waiting="0.00" lane="673171637_0" pos="109.60" speed="0.00" angle="330.76" x="1349.23" y="5509.74"/>
        <vehicle id="pt_light_rail_U13:1.0" eclass="Zero/default" CO2="0.00" CO="0.00" HC="0.00" NOx="0.00" PMx="0.00" fuel="0.00" electricity="0.00" noise="0.00" route="pt_light_rail_U13:1" type="pt_light_rail" waiting="0.00" lane="68552415#0_0" pos="109.60" speed="0.00" angle="159.04" x="699.97" y="7097.65"/>
        <vehicle id="pt_light_rail_U8:0.0" eclass="Zero/default" CO2="0.00" CO="0.00" HC="0.00" NOx="0.00" PMx="0.00" fuel="0.00" electricity="0.00" noise="0.00" route="pt_light_rail_U8:0" type="pt_light_rail" waiting="0.00" lane="89344777#0_0" pos="109.60" speed="0.00" angle="261.44" x="4347.30" y="505.07"/>
        <vehicle id="pt_light_rail_U8:1.0" eclass="Zero/default" CO2="0.00" CO="0.00" HC="0.00" NOx="0.00" PMx="0.00" fuel="0.00" electricity="0.00" noise="0.00" route="pt_light_rail_U8:1" type="pt_light_rail" waiting="0.00" lane="26946520#0_0" pos="109.60" speed="0.00" angle="133.11" x="1285.40" y="2263.43"/>
        <vehicle id="pt_train_RE_5:0.0" eclass="HBEFA3/HDV_D_EU0" CO2="9030.56" CO="14.69" HC="7.73" NOx="119.06" PMx="3.93" fuel="2841.67" electricity="0.00" noise="67.11" route="pt_train_RE_5:0" type="pt_train" waiting="0.00" lane="156199094#3_0" pos="135.10" speed="0.00" angle="295.07" x="4823.77" y="3061.13"/>
        <vehicle id="pt_train_S1:0.0" eclass="HBEFA3/HDV_D_EU0" CO2="9030.56" CO="14.69" HC="7.73" NOx="119.06" PMx="3.93" fuel="2841.67" electricity="0.00" noise="67.11" route="pt_train_S1:0" type="pt_train" waiting="0.00" lane="292876200#2_0" pos="135.10" speed="0.00" angle="153.70" x="2351.71" y="5689.21"/>
        <vehicle id="pt_train_S1:1.0" eclass="HBEFA3/HDV_D_EU0" CO2="9030.56" CO="14.69" HC="7.73" NOx="119.06" PMx="3.93" fuel="2841.67" electricity="0.00" noise="67.11" route="pt_train_S1:1" type="pt_train" waiting="0.00" lane="123444522#1_0" pos="135.10" speed="0.00" angle="298.51" x="10895.94" y="1022.70"/>
        <vehicle id="pt_trolleybus_101:0.0" eclass="HBEFA3/Bus" CO2="5286.11" CO="20.17" HC="4.85" NOx="60.75" PMx="2.01" fuel="1671.11" electricity="0.00" noise="67.11" route="pt_trolleybus_101:0" type="pt_trolleybus" waiting="0.00" lane="384338154#2_1" pos="12.10" speed="0.00" angle="255.52" x="7595.42" y="2628.36"/>
        <vehicle id="pt_trolleybus_101:1.0" eclass="HBEFA3/Bus" CO2="5286.11" CO="20.17" HC="4.85" NOx="60.75" PMx="2.01" fuel="1671.11" electricity="0.00" noise="67.11" route="pt_trolleybus_101:1" type="pt_trolleybus" waiting="0.00" lane="676917368#1_1" pos="12.10" speed="0.00" angle="336.83" x="2449.86" y="5671.27"/>
    </timestep>
    <timestep time="1.00">
        <vehicle id="p0_0" eclass="Zero/default" CO2="0.00" CO="0.00" HC="0.00" NOx="0.00" PMx="0.00" fuel="0.00" electricity="0.00" noise="0.00" route="!p0_0!var#1" type="bicycle" waiting="0.00" lane="25935612#1_1" pos="2.34" speed="0.64" angle="129.75" x="8778.22" y="1719.52"/>
        <vehicle id="pt_bus_102:0.0" eclass="HBEFA3/Bus" CO2="6407.47" CO="21.15" HC="4.99" NOx="68.12" PMx="2.12" fuel="2026.07" electricity="0.00" noise="70.98" route="pt_bus_102:0" type="pt_bus" waiting="0.00" lane="169225673_1" pos="12.75" speed="0.65" angle="212.90" x="8585.27" y="1372.11"/>
        <vehicle id="pt_bus_102:1.0" eclass="HBEFA3/Bus" CO2="6624.36" CO="21.37" HC="5.02" NOx="69.59" PMx="2.14" fuel="2094.72" electricity="0.00" noise="71.41" route="pt_bus_102:1" type="pt_bus" waiting="0.00" lane="-384172580#0_1" pos="12.82" speed="0.72" angle="198.96" x="9077.89" y="2156.70"/>
        <vehicle id="pt_bus_102:2.0" eclass="HBEFA3/Bus" CO2="8147.06" CO="22.93" HC="5.22" NOx="80.07" PMx="2.32" fuel="2576.64" electricity="0.00" noise="73.78" route="pt_bus_102:2" type="pt_bus" waiting="0.00" lane="899604572#2_1" pos="13.21" speed="1.11" angle="132.58" x="2478.23" y="3475.17"/>
        <vehicle id="pt_bus_102:4.0" eclass="HBEFA3/Bus" CO2="7754.30" CO="22.52" HC="5.17" NOx="77.35" PMx="2.27" fuel="2452.34" electricity="0.00" noise="73.24" route="pt_bus_102:4" type="pt_bus" waiting="0.00" lane="-394615943_1" pos="13.12" speed="1.02" angle="258.50" x="9527.09" y="1521.28"/>
        <vehicle id="pt_bus_103:3.0" eclass="HBEFA3/Bus" CO2="7043.92" CO="21.79" HC="5.08" NOx="72.46" PMx="2.19" fuel="2227.51" electricity="0.00" noise="72.16" route="pt_bus_103:3" type="pt_bus" waiting="0.00" lane="243216856_0" pos="12.94" speed="0.84" angle="231.32" x="1526.54" y="5474.27"/>
        <vehicle id="pt_bus_104:0.0" eclass="HBEFA3/Bus" CO2="7581.66" CO="22.34" HC="5.15" NOx="76.16" PMx="2.25" fuel="2397.70" electricity="0.00" noise="73.00" route="pt_bus_104:0" type="pt_bus" waiting="0.00" lane="386500268#1_1" pos="13.08" speed="0.98" angle="118.86" x="4843.47" y="3118.13"/>
        <vehicle id="pt_bus_104:2.0" eclass="HBEFA3/Bus" CO2="6681.68" CO="21.42" HC="5.03" NOx="69.98" PMx="2.15" fuel="2112.86" electricity="0.00" noise="71.52" route="pt_bus_104:2" type="pt_bus" waiting="0.00" lane="-207082664_1" pos="12.84" speed="0.74" angle="308.02" x="8818.33" y="630.56"/>
        <vehicle id="pt_bus_105:0.0" eclass="HBEFA3/Bus" CO2="6886.28" CO="21.63" HC="5.06" NOx="71.38" PMx="2.17" fuel="2177.61" electricity="0.00" noise="71.89" route="pt_bus_105:0" type="pt_bus" waiting="0.00" lane="675674221_1" pos="12.90" speed="0.80" angle="26.15" x="5857.31" y="4005.33"/>
        <vehicle id="pt_bus_108:0.0" eclass="HBEFA3/Bus" CO2="6589.07" CO="21.33" HC="5.02" NOx="69.35" PMx="2.14" fuel="2083.55" electricity="0.00" noise="71.34" route="pt_bus_108:0" type="pt_bus" waiting="0.00" lane="-386500268#0_1" pos="12.81" speed="0.71" angle="295.79" x="4816.05" y="3135.91"/>
        <vehicle id="pt_bus_108:1.0" eclass="HBEFA3/Bus" CO2="8132.99" CO="22.92" HC="5.22" NOx="79.97" PMx="2.32" fuel="2572.19" electricity="0.00" noise="73.76" route="!pt_bus_108:1.0!var#1" type="pt_bus" waiting="0.00" lane="-26685613_1" pos="13.21" speed="1.11" angle="54.11" x="7510.89" y="5402.22"/>
        <vehicle id="pt_bus_109:0.0" eclass="HBEFA3/Bus" CO2="8044.65" CO="22.82" HC="5.21" NOx="79.36" PMx="2.31" fuel="2544.23" electricity="0.00" noise="73.64" route="pt_bus_109:0" type="pt_bus" waiting="0.00" lane="156260258_1" pos="13.19" speed="1.09" angle="136.69" x="4772.13" y="3155.06"/>
        <vehicle id="pt_bus_109:1.0" eclass="HBEFA3/Bus" CO2="5286.11" CO="20.17" HC="4.85" NOx="60.75" PMx="2.01" fuel="1671.11" electricity="0.00" noise="67.11" route="pt_bus_109:1" type="pt_bus" waiting="0.00" lane="387117388_1" pos="1.30" speed="0.00" angle="230.40" x="3458.93" y="5929.00"/>
        <vehicle id="pt_bus_110:1.0" eclass="HBEFA3/Bus" CO2="8325.83" CO="23.12" HC="5.24" NOx="81.30" PMx="2.34" fuel="2633.22" electricity="0.00" noise="74.01" route="pt_bus_110:1" type="pt_bus" waiting="0.00" lane="1028791820_1" pos="13.25" speed="1.15" angle="151.17" x="5953.09" y="5683.75"/>
        <vehicle id="pt_bus_111:1.0" eclass="HBEFA3/Bus" CO2="6464.60" CO="21.21" HC="5.00" NOx="68.50" PMx="2.13" fuel="2044.15" electricity="0.00" noise="71.10" route="pt_bus_111:1" type="pt_bus" waiting="0.00" lane="-387155257#0_1" pos="12.77" speed="0.67" angle="297.02" x="4213.86" y="4053.45"/>
        <vehicle id="pt_bus_114:0.0" eclass="HBEFA3/Bus" CO2="6589.56" CO="21.33" HC="5.02" NOx="69.36" PMx="2.14" fuel="2083.70" electricity="0.00" noise="71.35" route="pt_bus_114:0" type="pt_bus" waiting="0.00" lane="384972991#1_1" pos="12.81" speed="0.71" angle="296.40" x="4859.10" y="3098.94"/>
        <vehicle id="pt_bus_114:1.0" eclass="HBEFA3/Bus" CO2="6472.16" CO="21.21" HC="5.00" NOx="68.56" PMx="2.13" fuel="2046.55" electricity="0.00" noise="71.11" route="pt_bus_114:1" type="pt_bus" waiting="0.00" lane="-846930959_1" pos="12.77" speed="0.67" angle="267.71" x="8833.06" y="2805.19"/>
        <vehicle id="pt_bus_114:5.0" eclass="HBEFA3/Bus" CO2="7139.70" CO="21.89" HC="5.09" NOx="73.12" PMx="2.20" fuel="2257.82" electricity="0.00" noise="72.32" route="pt_bus_114:5" type="pt_bus" waiting="0.00" lane="-390841675_1" pos="12.97" speed="0.87" angle="94.53" x="9413.20" y="6342.40"/>
        <vehicle id="pt_bus_115:0.0" eclass="HBEFA3/Bus" CO2="6545.89" CO="21.29" HC="5.01" NOx="69.06" PMx="2.14" fuel="2069.88" electricity="0.00" noise="71.26" route="pt_bus_115:0" type="pt_bus" waiting="0.00" lane="-383983728_1" pos="12.79" speed="0.69" angle="141.20" x="3078.76" y="4065.09"/>
        <vehicle id="pt_bus_119:0.0" eclass="HBEFA3/Bus" CO2="6919.51" CO="21.66" HC="5.06" NOx="71.61" PMx="2.18" fuel="2188.13" electricity="0.00" noise="71.95" route="pt_bus_119:0" type="pt_bus" waiting="0.00" lane="268558823#1_1" pos="12.91" speed="0.81" angle="296.96" x="4855.74" y="3093.82"/>
        <vehicle id="pt_bus_119:1.0" eclass="HBEFA3/Bus" CO2="6305.21" CO="21.05" HC="4.98" NOx="67.42" PMx="2.11" fuel="1993.70" electricity="0.00" noise="70.76" route="pt_bus_119:1" type="pt_bus" waiting="0.00" lane="569733700#3_1" pos="12.71" speed="0.61" angle="98.78" x="4760.46" y="949.00"/>
        <vehicle id="pt_bus_120:1.0" eclass="HBEFA3/Bus" CO2="8129.61" CO="22.91" HC="5.22" NOx="79.95" PMx="2.32" fuel="2571.12" electricity="0.00" noise="73.76" route="pt_bus_120:1" type="pt_bus" waiting="0.00" lane="177336121_1" pos="13.21" speed="1.11" angle="1.69" x="4811.80" y="731.59"/>
        <vehicle id="pt_bus_121:0.0" eclass="HBEFA3/Bus" CO2="7288.60" CO="22.04" HC="5.11" NOx="74.14" PMx="2.22" fuel="2304.95" electricity="0.00" noise="72.55" route="pt_bus_121:0" type="pt_bus" waiting="0.00" lane="-392589607#0_1" pos="13.01" speed="0.91" angle="116.15" x="6727.42" y="2086.33"/>
        <vehicle id="pt_bus_122:0.0" eclass="HBEFA3/Bus" CO2="7083.86" CO="21.83" HC="5.08" NOx="72.74" PMx="2.20" fuel="2240.15" electricity="0.00" noise="72.22" route="pt_bus_122:0" type="pt_bus" waiting="0.00" lane="-392441930_1" pos="12.95" speed="0.85" angle="297.36" x="4868.84" y="3108.28"/>
        <vehicle id="pt_bus_122:1.0" eclass="HBEFA3/Bus" CO2="8237.94" CO="23.03" HC="5.23" NOx="80.69" PMx="2.33" fuel="2605.40" electricity="0.00" noise="73.90" route="pt_bus_122:1" type="pt_bus" waiting="0.00" lane="101742272#8_1" pos="13.23" speed="1.13" angle="355.06" x="2685.27" y="1005.51"/>
        <vehicle id="pt_bus_130:0.0" eclass="HBEFA3/Bus" CO2="5286.11" CO="20.17" HC="4.85" NOx="60.75" PMx="2.01" fuel="1671.11" electricity="0.00" noise="67.11" route="pt_bus_130:0" type="pt_bus" waiting="0.00" lane="-343305746#1_1" pos="7.47" speed="0.00" angle="102.06" x="1291.56" y="2015.32"/>
        <vehicle id="pt_bus_131:0.0" eclass="HBEFA3/Bus" CO2="7223.89" CO="21.97" HC="5.10" NOx="73.70" PMx="2.21" fuel="2284.47" electricity="0.00" noise="72.45" route="pt_bus_131:0" type="pt_bus" waiting="0.00" lane="675777502_1" pos="12.99" speed="0.89" angle="295.79" x="4776.67" y="3113.54"/>
        <vehicle id="pt_bus_132:0.0" eclass="HBEFA3/Bus" CO2="7956.23" CO="22.73" HC="5.19" NOx="78.75" PMx="2.30" fuel="2516.24" electricity="0.00" noise="73.52" route="pt_bus_132:0" type="pt_bus" waiting="0.00" lane="-394114218#3_1" pos="13.17" speed="1.07" angle="347.45" x="7740.91" y="2322.77"/>
        <vehicle id="pt_bus_138:0.0" eclass="HBEFA3/Bus" CO2="5286.11" CO="20.17" HC="4.85" NOx="60.75" PMx="2.01" fuel="1671.11" electricity="0.00" noise="67.11" route="pt_bus_138:0" type="pt_bus" waiting="0.00" lane="122124925#0_1" pos="0.20" speed="0.00" angle="321.65" x="8420.91" y="4602.73"/>
        <vehicle id="pt_bus_140:0.0" eclass="HBEFA3/Bus" CO2="7855.34" CO="22.63" HC="5.18" NOx="78.05" PMx="2.28" fuel="2484.31" electricity="0.00" noise="73.39" route="pt_bus_140:0" type="pt_bus" waiting="0.00" lane="268558821#1_1" pos="13.15" speed="1.05" angle="295.71" x="4852.23" y="3087.72"/>
        <vehicle id="pt_bus_140:1.0" eclass="HBEFA3/Bus" CO2="6587.02" CO="21.33" HC="5.02" NOx="69.34" PMx="2.14" fuel="2082.90" electricity="0.00" noise="71.34" route="pt_bus_140:1" type="pt_bus" waiting="0.00" lane="-39761675#3_1" pos="12.81" speed="0.71" angle="282.52" x="9106.42" y="1571.67"/>
        <vehicle id="pt_bus_61:0.0" eclass="HBEFA3/Bus" CO2="6784.13" CO="21.53" HC="5.04" NOx="70.68" PMx="2.16" fuel="2145.29" electricity="0.00" noise="71.71" route="pt_bus_61:0" type="pt_bus" waiting="0.00" lane="-540190677_1" pos="12.87" speed="0.77" angle="81.63" x="2479.75" y="5634.55"/>
        <vehicle id="pt_bus_61:1.0" eclass="HBEFA3/Bus" CO2="7432.94" CO="22.19" HC="5.13" NOx="75.14" PMx="2.24" fuel="2350.63" electricity="0.00" noise="72.77" route="pt_bus_61:1" type="pt_bus" waiting="0.00" lane="431444776#1_0" pos="13.04" speed="0.94" angle="161.82" x="2019.36" y="6535.16"/>
        <vehicle id="pt_bus_62:0.0" eclass="HBEFA3/Bus" CO2="8291.44" CO="23.08" HC="5.24" NOx="81.07" PMx="2.34" fuel="2622.33" electricity="0.00" noise="73.97" route="pt_bus_62:0" type="pt_bus" waiting="0.00" lane="27607327#0_1" pos="13.24" speed="1.14" angle="65.89" x="1214.70" y="5137.20"/>
        <vehicle id="pt_bus_65:0.0" eclass="HBEFA3/Bus" CO2="6878.63" CO="21.62" HC="5.05" NOx="71.33" PMx="2.17" fuel="2175.19" electricity="0.00" noise="71.88" route="pt_bus_65:0" type="pt_bus" waiting="0.00" lane="-676917368#0_1" pos="12.89" speed="0.79" angle="151.31" x="2460.57" y="5642.64"/>
        <vehicle id="pt_bus_816:0.0" eclass="HBEFA3/Bus" CO2="8427.18" CO="23.23" HC="5.26" NOx="82.01" PMx="2.35" fuel="2665.29" electricity="0.00" noise="74.14" route="pt_bus_816:0" type="pt_bus" waiting="0.00" lane="29146499#2_1" pos="13.27" speed="1.17" angle="11.55" x="1298.82" y="3383.83"/>
        <vehicle id="pt_bus_816:1.0" eclass="HBEFA3/Bus" CO2="6567.71" CO="21.31" HC="5.01" NOx="69.21" PMx="2.14" fuel="2076.79" electricity="0.00" noise="71.30" route="pt_bus_816:1" type="pt_bus" waiting="0.00" lane="-294067066#1_1" pos="12.80" speed="0.70" angle="305.67" x="1319.28" y="1621.23"/>
        <vehicle id="pt_bus_X20:0.0" eclass="HBEFA3/Bus" CO2="6293.65" CO="21.04" HC="4.98" NOx="67.34" PMx="2.11" fuel="1990.05" electricity="0.00" noise="70.74" route="pt_bus_X20:0" type="pt_bus" waiting="0.00" lane="232962013#1_1" pos="12.71" speed="0.61" angle="161.84" x="6458.95" y="6367.32"/>
        <vehicle id="pt_light_rail_U13:0.0" eclass="Zero/default" CO2="0.00" CO="0.00" HC="0.00" NOx="0.00" PMx="0.00" fuel="0.00" electricity="0.00" noise="0.00" route="pt_light_rail_U13:0" type="pt_light_rail" waiting="0.00" lane="673171637_0" pos="110.60" speed="1.00" angle="330.76" x="1348.74" y="5510.61"/>
        <vehicle id="pt_light_rail_U13:1.0" eclass="Zero/default" CO2="0.00" CO="0.00" HC="0.00" NOx="0.00" PMx="0.00" fuel="0.00" electricity="0.00" noise="0.00" route="pt_light_rail_U13:1" type="pt_light_rail" waiting="0.00" lane="68552415#0_0" pos="110.60" speed="1.00" angle="159.65" x="700.25" y="7096.69"/>