<?xml version="1.0" encoding="UTF-8"?>

<!-- generated on 2023-05-01 16:57:55 by Eclipse SUMO sumo Version 1.16.0
<configuration xmlns:xsi="http://www.w3.org/2001/XMLSchema-instance" xsi:noNamespaceSchemaLocation="http://sumo.dlr.de/xsd/sumoConfiguration.xsd">

    <input>
        <net-file value="C:\Users\sader\Sumo\2023-05-01-16-57-47\osm.net.xml.gz"/>
        <route-files value="C:\Users\sader\Sumo\2023-05-01-16-57-47\trips.trips.xml"/>
        <additional-files value="C:\Users\sader\Sumo\2023-05-01-16-57-47\osm_stops.add.xml"/>
    </input>

    <output>
        <vehroute-output value="C:\Users\sader\Sumo\2023-05-01-16-57-47\vehroutes.xml"/>
        <stop-output value="C:\Users\sader\Sumo\2023-05-01-16-57-47\stopinfos.xml"/>
    </output>

    <time>
        <begin value="0.0"/>
    </time>

    <processing>
        <ignore-route-errors value="true"/>
    </processing>

    <routing>
        <device.rerouting.adaptation-interval value="0"/>
    </routing>

    <report>
        <aggregate-warnings value="5"/>
        <error-log value="C:\Users\sader\Sumo\2023-05-01-16-57-47\trips.trips.xml.errorlog"/>
        <no-step-log value="true"/>
    </report>

</configuration>
-->

<routes xmlns:xsi="http://www.w3.org/2001/XMLSchema-instance" xsi:noNamespaceSchemaLocation="http://sumo.dlr.de/xsd/routes_file.xsd">
    <vehicle id="41_bus_111:1" type="pt_bus" depart="371.00" departLane="1" arrival="417.00">
        <route edges="23471056#1"/>
        <stop busStop="3904767704" duration="30.00"/>
    </vehicle>

    <vehicle id="2_train_RE_5:0" type="pt_train" depart="15.00" departLane="0" arrival="420.00">
        <route edges="248760538#0 248760538#1 248760538#2 248760538#3 248760538#4 180784434#1 156199094#1 156199094#2 156199094#3 102848475#1 102848507#0 102848507#1 460942121#0 460942121#1 25423242#1 85959749#1"/>
        <stop busStop="2661523902" duration="30.00"/>
    </vehicle>

    <vehicle id="6_bus_108:0" type="pt_bus" depart="52.00" departLane="0" arrival="427.00">
        <route edges="-386500268#0 316354387#0 316354387#1 -135078201 -386832703#1 -386832703#0 -442274138 -442274132 -169220423 378237356 442274136 442274140 29138343#0 29138343#1 488705428#0 488705428#1 488705428#2 29138344 202572138 -23320738#2 -23320738#1 -23320738#0 -29139497#2 562273438 23329044 694012882 694012897#0 694012897#1 29139496 386831073 694012900#0 694012900#1 694012881 694012904 -386831074 -386831075 -8812305#1 -8812305#0"/>
        <stop busStop="-3566577210" duration="30.00"/>
        <stop busStop="-3872841444" duration="30.00"/>
    </vehicle>

    <vehicle id="10_bus_119:0" type="pt_bus" depart="93.00" departLane="0" arrival="487.00">
        <route edges="268558823#1 -146911733 -468914851 4811517 345748663 26738365#0 26738365#1 265461450 423481774#1 220150010 10492736 345736590 345736580 180667064#0 345736584 265461444#0 692610294 1157387458 345736587#0 345736587#1 30998717#0 11335846#1 926867325 345736604 926867324 265461454 926867322 23182939 265450242 345736606 686955221 926867319 345736600 345736602 345736605 926867315 1079724463 926867314"/>
        <stop busStop="3566577206" duration="30.00"/>
        <stop busStop="3933810892" duration="30.00"/>
        <stop busStop="2711169196" duration="30.00"/>
    </vehicle>

    <vehicle id="36_bus_109:0" type="pt_bus" depart="334.00" departLane="0" arrival="657.00">
        <route edges="-386500268#0 316354387#0 316354387#1 -135078201 -386832703#1 -386832703#0 -442274138 -442274132 -169220423 378237356 442274136 442274140 29138343#0 29138343#1 488705428#0 488705428#1 488705428#2 -442274142 -159822900#0 -410089906 592426952 199665487#0 199665487#1 1035471353 956612326"/>
        <stop busStop="-6501810816" duration="30.00"/>
        <stop busStop="-2648044989" duration="30.00"/>
    </vehicle>

    <vehicle id="0_bus_114:0" type="pt_bus" depart="3.00" departLane="0" arrival="670.00">
        <route edges="384972991#1 -350217704#3 -350217704#2 -350217704#1 -350217704#0 109592895 17097227 290577629#0 290577631 387401256#1 178668744 178668743 54883018#1 54883018#2 54883018#3 4807837#0 4807837#1 4807837#2 275526211 -4811453#5 -4811453#4 -4811453#3 -4811453#2 -4811453#1"/>
        <stop busStop="2739052081" duration="30.00"/>
        <stop busStop="-1254192526" duration="30.00"/>
        <stop busStop="1219607572" duration="30.00"/>
        <stop busStop="2626499005" duration="30.00"/>
    </vehicle>

    <vehicle id="37_bus_109:1" type="pt_bus" depart="346.00" departLane="1" arrival="721.00">
        <route edges="-956612326 -1035471353 -199665487#1 -199665487#0 -592426952 766727735 159822900#0 159822900#1 94166210#0 94166210#1 386832700 386832701#0 386832701#1 442274134 386832702 -378237356 -23316466 442274132 442274138 386832703#0 386832703#1 135078201 -283413806 -316354387#0 156260258 -386500268#0"/>
        <stop busStop="-3904477589" duration="30.00"/>
    </vehicle>

    <vehicle id="5_train_S1:0" type="pt_train" depart="47.00" departLane="0" arrival="778.00">
        <route edges="292876203 102807136#1 102807136#2 102848495#1 102848495#2 102848495#3 102848495#4 454381994#1 292876199#0 292876199#1 292876199#2 292876199#3 292876199#4 180784454#1 180784454#2 180784454#3"/>
        <stop busStop="1187584571" duration="30.00"/>
        <stop busStop="1187534664" duration="30.00"/>
        <stop busStop="3082151227" duration="30.00"/>
        <stop busStop="1187477995" duration="30.00"/>
    </vehicle>

    <vehicle id="8_bus_131:0" type="pt_bus" depart="58.00" departLane="1" arrival="779.00">
        <route edges="675777502 -350217704#2 -350217704#1 -350217704#0 109592895 17097227 290577629#0 1157387454#0 1157387454#1 138203609#0 138203610 387155262 156260255#0 156260255#1 156260255#2 156260255#3 138203607 4807840 23205593#0 26738365#0 26738365#1 265461450 423481774#1 220150010 10492736 345736590 345736580 180667064#0 345736584 265461444#0 692610294 1157387458 345736587#0 345736587#1 30998717#0 -30998716#1 23032776#0 432904401 448036755#0 448036755#1 -264621638"/>
        <stop busStop="3224629436" duration="30.00"/>
        <stop busStop="-3872841443" duration="30.00"/>
    </vehicle>

    <vehicle id="9_bus_122:0" type="pt_bus" depart="60.00" departLane="0" arrival="787.00">
        <route edges="-392441930 -386500268#0 316354387#0 316354387#1 -135078201 -386832703#1 -386832703#0 -442274138 -442274132 -169220423 378237356 -378237356 -23316466 442274132 442274138 386832703#0 386832703#1 135078201 -283413806 -316354387#0 -105914659#1 -675777502 -316354392 -146911733 -468914851 4811517 345748663 26738365#0 26738365#1 265461450 423481774#1 220150010 10492736 345736590 345736580 180667064#0 345736584 265461444#0 692610294 1157387458 345736587#0 345736587#1 30998717#0 -30998716#1 23032776#0 432904401 448036755#0 448036755#1 -264621638"/>
        <stop busStop="-3566577209" duration="30.00"/>
        <stop busStop="-3872841444" duration="30.00"/>
    </vehicle>

    <vehicle id="16_bus_102:0" type="pt_bus" depart="132.00" departLane="1" arrival="813.00">
        <route edges="-23439978#5 -40817206#7 -40817206#5 -40817206#3 -40817206#2 4811453#4 4811453#5 -275526211 -4807837#2 -4807837#1 -4807837#0 -54883018#3 -54883018#2 -54883018#1 -178668743 -202630135 -387401256#1 -290577631 1157387454#0 1157387454#1 138203609#0 138203610 387155262 156260255#0 156260255#1 156260255#2 156260255#3 138203607 4807840 23205593#0 26738365#0 26738365#1 265461450 423481774#1 220150010 10492736 345736590 345736580 180667064#0 345736584 180667066#0 180667070 387401266 -692610297 -900882212 -169097419#1 -900882211#1 -900882210 -111177314#4 -111177314#2 -111177314#1 -111177314#0 -911891312 -687182914#2 -687182914#1 -687182914#0 692610318#1 911891324 911891320 23093000#1 911891319#1 692610317#1 692610317#2 383945640 169096205 -387498727#1 -387498727#0 -387498728#3 -387498728#2 -387498728#1 -387498728#0 -17096022 9054644 978314929 37721065#0 37721065#1 37721066#0 37721066#1"/>
        <stop busStop="-496276886" duration="30.00"/>
    </vehicle>

    <vehicle id="28_bus_104:0" type="pt_bus" depart="222.00" departLane="0" arrival="832.00">
        <route edges="386500268#1 -350217704#2 -350217704#1 -350217704#0 109592895 17097227 290577629#0 290577631 387401256#1 178668744 178668743 -189364993#0 24511285#1 24511285#2 390216943 -24302935 -474485720 -24008850#0 -474485721 -24008852#3 -24008852#2 -24008852#0 -474485722 -474485723"/>
        <stop busStop="3566577208" duration="30.00"/>
        <stop busStop="-6515317595" duration="30.00"/>
    </vehicle>

    <vehicle id="13_trolleybus_101:1" type="pt_trolleybus" depart="119.00" departLane="1" arrival="855.00">
        <route edges="-448974997#1 -448974997#0 -30010699#1 -30010699#0 -448974996#1 -448974996#0 -388285827#0 -135078205 -23163758 -896339464 146908199#1 146908199#2 -387401261 -378237359#6 -378237359#5 -378237359#4 -378237359#3 -378237359#2 -378237359#1 -378237359#0 -692537991#0 -692537992 -378237361 -135078202#1 378237373#1 378237374#0 -378237372#1 -4807752#0 -937763472 -823062060 -990451065 -400653105 -400653106 -675777502 -316354392 -146911733 -468914851 -939228251 -911970185 -911970184 -31787956 -1157387457 182055214 1157387448 1157387451#0 290577631 387401256#1 178668744 178668743 54883018#1 54883018#2 54883018#3 4807837#0 4807837#1 4807837#2 275526211 -4811453#5 -4811453#4 -4811453#3 -4811453#2 -4811453#1"/>
        <stop busStop="-3872480827" duration="30.00"/>
    </vehicle>

    <vehicle id="18_bus_102:2" type="pt_bus" depart="136.00" departLane="1" arrival="926.00">
        <route edges="-37721066#1 -37721066#0 -37721065#1 -37721065#0 -978314929 -9054644 17096022 387498728#0 387498728#1 387498728#2 387498728#3 387498727#0 387498727#1 17096023 383945639 383945640 23032789#0 23032789#1 10698330#0 10698330#1 10698330#2 10698330#4 911891312 111177314#0 111177314#1 111177314#2 111177314#4 900882210 900882211#1 169097419#1 900882212 692610297 180667072#0 180667072#1 345748660#0 692610295 169097422 265461443 345736597 345736596 423481788#0 423481788#1 220150011#0 220150011#1 423481777 265461451 23205595 350147738 10492734#0 10492734#1 138203605 138203604#0 387155260#0 387155260#1 220151070#0 220151070#1 220151070#3 4807782#0 4807782#2 -4807778#5 -4807778#4 -4807778#3 -4807778#2 -4807778#1 -4807778#0 366030058#0 366030058#1 366030058#2 366030058#3 40817206#7 23439978#5"/>
        <stop busStop="-3872841423" duration="30.00"/>
    </vehicle>

    <vehicle id="17_bus_102:1" type="pt_bus" depart="138.00" departLane="1" arrival="938.00">
        <route edges="-23439978#5 -40817206#7 -40817206#5 -40817206#3 -40817206#2 4811453#4 4811453#5 -275526211 -4807837#2 -4807837#1 -4807837#0 -54883018#3 -54883018#2 -54883018#1 -178668743 -202630135 -387401256#1 -290577631 1157387454#0 1157387454#1 138203609#0 138203610 387155262 156260255#0 156260255#1 156260255#2 156260255#3 138203607 4807840 23205593#0 26738365#0 26738365#1 265461450 423481774#1 220150010 10492736 345736590 345736580 180667064#0 345736584 180667066#0 180667070 387401266 -692610297 -900882212 -169097419#1 -900882211#1 -900882210 -111177314#4 -111177314#2 -111177314#1 -111177314#0 -911891312 -687182914#2 -687182914#1 -687182914#0 692610318#1 911891324 911891320 23093000#1 911891319#1 692610317#1 692610317#2 383945640 169096205 -387498727#1 -387498727#0 -387498728#3 -387498728#2 -387498728#1 -387498728#0 -17096022 9054644 978314929 37721065#0 37721065#1 37721066#0 37721066#1"/>
        <stop busStop="-496276886" duration="30.00"/>
    </vehicle>

    <vehicle id="20_bus_102:4" type="pt_bus" depart="144.00" departLane="1" arrival="940.00">
        <route edges="-23439978#5 -40817206#7 -40817206#5 -40817206#3 -40817206#2 4811453#4 4811453#5 -275526211 -4807837#2 -4807837#1 -4807837#0 -54883018#3 -54883018#2 -54883018#1 -178668743 -202630135 -387401256#1 -290577631 1157387454#0 1157387454#1 138203609#0 138203610 387155262 156260255#0 156260255#1 156260255#2 156260255#3 138203607 4807840 23205593#0 26738365#0 26738365#1 265461450 423481774#1 220150010 10492736 345736590 345736580 180667064#0 345736584 180667066#0 180667070 387401266 -692610297 -900882212 -169097419#1 -900882211#1 -900882210 -111177314#4 -111177314#2 -111177314#1 -111177314#0 -911891312 -687182914#2 -687182914#1 -687182914#0 692610318#1 911891324 911891320 23093000#1 911891319#1 692610317#1 692610317#2 383945640 169096205 -387498727#1 -387498727#0 -387498728#3 -387498728#2 -387498728#1 -387498728#0 -17096022 9054644 978314929 37721065#0 37721065#1 37721066#0 37721066#1"/>
        <stop busStop="-496276886" duration="30.00"/>
    </vehicle>

    <vehicle id="3_bus_114:2" type="pt_bus" depart="17.00" departLane="0" arrival="948.00">
        <route edges="384972991#1 -350217704#2 -350217704#1 -350217704#0 109592895 17097227 290577629#0 290577631 387401256#1 178668744 178668743 54883018#1 54883018#2 54883018#3 4807837#0 4807837#1 4807837#2 275526211 -4811453#5 -4811453#4 -4811453#3 -4811453#2 -4811453#1"/>
        <stop busStop="2739052081" duration="30.00"/>
        <stop busStop="-6515317595" duration="30.00"/>
    </vehicle>

    <vehicle id="15_train_S1:1" type="pt_train" depart="131.00" departLane="0" arrival="955.00">
        <route edges="123444522#0 123444522#1 123444522#2 123444522#3 123444522#4 123444522#5 180784432#1 180784439#1 180784439#2 180784439#3 180784439#4 180784439#5 180784439#6 180784439#7 445470518 156199093#1 102841941 -102848495#2 -102848495#1 102841943 156199093#3 460942119#0 460942119#1 286146962#1 286146962#2 284659686#1 85959750#1"/>
        <stop busStop="3068304222" duration="30.00"/>
        <stop busStop="3082162048" duration="30.00"/>
        <stop busStop="263337147" duration="30.00"/>
        <stop busStop="263337141" duration="30.00"/>
        <stop busStop="3222963807" duration="30.00"/>
    </vehicle>

    <vehicle id="23_bus_103:1" type="pt_bus" depart="171.00" departLane="1" arrival="1013.00">
        <route edges="-23439978#5 -40817206#7 -40817206#5 -40817206#3 -40817206#2 4811453#4 4811453#5 -275526211 -4807837#2 -4807837#1 -4807837#0 -54883018#3 -54883018#2 -54883018#1 -178668743 -202630135 -387401256#1 -290577631 1157387454#0 1157387454#1 138203609#0 138203610 387155262 156260255#0 156260255#1 156260255#2 156260255#3 138203607 4807840 23205593#0 26738365#0 26738365#1 265461450 423481774#1 220150010 10492736 345736590 345736580 180667064#0 345736584 180667066#0 180667070 387401266 -692610297 -900882212 -169097419#1 -900882211#1 -900882210 -111177314#4 -111177314#2 -111177314#1 -111177314#0 -911891312 -687182914#2 -687182914#1 -687182914#0 692610318#1 911891324 911891320 23093000#1 911891319#1 692610317#1 692610317#2 383945640 169096205 -387498727#1 -387498727#0 -387498728#3 -387498728#2 -387498728#1 -387498728#0 -17096022 9054644 978314929 37721065#0 37721065#1 37721066#0 37721066#1"/>
        <stop busStop="-496276886" duration="30.00"/>
    </vehicle>

    <vehicle id="40_bus_111:0" type="pt_bus" depart="365.00" departLane="0" arrival="1013.00">
        <route edges="-386500268#0 -350217704#3 -350217704#2 -350217704#1 -350217704#0 109592895 17097227 290577629#0 1157387454#0 1157387454#1 138203609#0 138203610 17096027#0 17096027#1 17096027#2 220151070#0 220151070#1 220151070#3 4807782#0 4807782#2 4807780#1 4807780#2 169224406#0 169224406#1 694012890 694012889 694012904 -386831074 -386831075 -8812305#1 -8812305#0"/>
        <stop busStop="-3566577210" duration="30.00"/>
        <stop busStop="-6515317538" duration="30.00"/>
    </vehicle>

    <vehicle id="22_bus_103:0" type="pt_bus" depart="165.00" departLane="1" arrival="1018.00">
        <route edges="-23439978#5 -40817206#7 -40817206#5 -40817206#3 -40817206#2 4811453#4 4811453#5 -275526211 -4807837#2 -4807837#1 -4807837#0 -54883018#3 -54883018#2 -54883018#1 -178668743 -202630135 -387401256#1 -290577631 1157387454#0 1157387454#1 138203609#0 138203610 387155262 156260255#0 156260255#1 156260255#2 156260255#3 138203607 4807840 23205593#0 26738365#0 26738365#1 265461450 423481774#1 220150010 10492736 345736590 345736580 180667064#0 345736584 180667066#0 180667070 387401266 -692610297 -900882212 -169097419#1 -900882211#1 -900882210 -111177314#4 -111177314#2 -111177314#1 -111177314#0 -911891312 -687182914#2 -687182914#1 -687182914#0 692610318#1 911891324 911891320 23093000#1 911891319#1 692610317#1 692610317#2 383945640 169096205 -387498727#1 -387498727#0 -387498728#3 -387498728#2 -387498728#1 -387498728#0 -17096022 9054644 978314929 37721065#0 37721065#1 37721066#0 37721066#1"/>
        <stop busStop="-496276886" duration="30.00"/>
    </vehicle>

    <vehicle id="24_bus_103:2" type="pt_bus" depart="177.00" departLane="1" arrival="1021.00">
        <route edges="-23439978#5 -40817206#7 -40817206#5 -40817206#3 -40817206#2 4811453#4 4811453#5 -275526211 -4807837#2 -4807837#1 -4807837#0 -54883018#3 -54883018#2 -54883018#1 -178668743 -202630135 -387401256#1 -290577631 1157387454#0 1157387454#1 138203609#0 138203610 387155262 156260255#0 156260255#1 156260255#2 156260255#3 138203607 4807840 23205593#0 26738365#0 26738365#1 265461450 423481774#1 220150010 10492736 345736590 345736580 180667064#0 345736584 180667066#0 180667070 387401266 -692610297 -900882212 -169097419#1 -900882211#1 -900882210 -111177314#4 -111177314#2 -111177314#1 -111177314#0 -911891312 -687182914#2 -687182914#1 -687182914#0 692610318#1 911891324 911891320 23093000#1 911891319#1 692610317#1 692610317#2 383945640 169096205 -387498727#1 -387498727#0 -387498728#3 -387498728#2 -387498728#1 -387498728#0 -17096022 9054644 978314929 37721065#0 37721065#1 37721066#0 37721066#1"/>
        <stop busStop="-496276886" duration="30.00"/>
    </vehicle>

    <vehicle id="1_bus_114:1" type="pt_bus" depart="15.00" departLane="0" arrival="1023.00">
        <route edges="4811453#0 4811453#2 4811453#3 4811453#4 4811453#5 -275526211 -4807837#2 -4807837#1 -4807837#0 -54883018#3 -54883018#2 -54883018#1 -178668743 -202630135 -387401256#1 -290577631 163737798 1157387449#0 1157387449#1 1157387455 1157387457 31787956 911970184 911970185 939228251 178668745 -332292229 -384972985 -384972984 384972991#0 384972991#1"/>
        <stop busStop="-2626499005" duration="30.00"/>
    </vehicle>

    <vehicle id="21_bus_102:5" type="pt_bus" depart="160.00" departLane="1" arrival="1034.00">
        <route edges="-37721066#1 -37721066#0 -37721065#1 -37721065#0 -978314929 -9054644 17096022 387498728#0 387498728#1 387498728#2 387498728#3 387498727#0 387498727#1 17096023 383945639 383945640 23032789#0 23032789#1 10698330#0 10698330#1 10698330#2 10698330#4 911891312 111177314#0 111177314#1 111177314#2 111177314#4 900882210 900882211#1 169097419#1 900882212 692610297 180667072#0 180667072#1 345748660#0 692610295 169097422 265461443 345736597 345736596 423481788#0 423481788#1 220150011#0 220150011#1 423481777 265461451 23205595 350147738 10492734#0 10492734#1 138203605 138203604#0 387155260#0 387155260#1 220151070#0 220151070#1 220151070#3 4807782#0 4807782#2 -4807778#5 -4807778#4 -4807778#3 -4807778#2 -4807778#1 -4807778#0 366030058#0 366030058#1 366030058#2 366030058#3 40817206#7 23439978#5"/>
        <stop busStop="-3872841423" duration="30.00"/>
    </vehicle>

    <vehicle id="30_bus_104:2" type="pt_bus" depart="227.00" departLane="0" arrival="1034.00">
        <route edges="474485723 474485722 24008852#0 24008852#2 24008852#3 474485721 24008850#0 474485720 24302935 -390216943 -24511285#2 -24511285#1 189364993#0 -178668743 -202630135 -387401256#1 -290577631 163737798 1157387449#0 1157387449#1 1157387455 1157387457 31787956 911970184 911970185 939228251 178668745 -332292229 -384972985 -384972984 -233802788 -392441930 386500268#1"/>
        <stop busStop="4684341514" duration="30.00"/>
    </vehicle>

    <vehicle id="42_bus_112:0" type="pt_bus" depart="381.00" departLane="0" arrival="1035.00">
        <route edges="268558823#1 -350217704#3 -350217704#2 -350217704#1 -350217704#0 109592895 17097227 290577629#0 1157387454#0 1157387454#1 138203609#0 138203610 17096027#0 17096027#1 17096027#2 220151070#0 220151070#1 220151070#3 4807782#0 4807782#2 4807780#1 4807780#2 169224406#0 169224406#1 694012890 694012889 694012904 -386831074 -386831075 -8812305#1 -8812305#0"/>
        <stop busStop="3566577206" duration="30.00"/>
    </vehicle>

    <vehicle id="14_bus_122:1" type="pt_bus" depart="125.00" departLane="1" arrival="1039.00">
        <route edges="264621638 -448036755#1 -448036755#0 -432904401 -23032776#0 30998716#0 11335855#0 11335855#1 265461445#0 169097422 265461443 345736597 345736596 423481788#0 423481788#1 220150011#0 220150011#1 423481777 265461451 23205595 350147738 10492734#0 10492734#1 17096026 156260261 138203611#0 138203611#1 163737798 1157387449#0 1157387449#1 1157387455 1157387457 31787956 911970184 911970185 939228251 178668745 -332292229 -384972985 -384972984 -233802788 -392441930"/>
        <stop busStop="-248493258" duration="30.00"/>
    </vehicle>

    <vehicle id="31_bus_104:3" type="pt_bus" depart="253.00" departLane="0" arrival="1039.00">
        <route edges="474485723 474485722 24008852#0 24008852#2 24008852#3 474485721 24008850#0 474485720 24302935 -390216943 -24511285#2 -24511285#1 189364993#0 -178668743 -202630135 -387401256#1 -290577631 163737798 1157387449#0 1157387449#1 1157387455 1157387457 31787956 911970184 911970185 939228251 178668745 -332292229 -384972985 -384972984 -233802788 -392441930 386500268#1"/>
        <stop busStop="4684341514" duration="30.00"/>
    </vehicle>

    <vehicle id="19_bus_102:3" type="pt_bus" depart="142.00" departLane="1" arrival="1044.00">
        <route edges="-37721066#1 -37721066#0 -37721065#1 -37721065#0 -978314929 -9054644 17096022 387498728#0 387498728#1 387498728#2 387498728#3 387498727#0 387498727#1 17096023 383945639 383945640 23032789#0 23032789#1 10698330#0 10698330#1 10698330#2 10698330#4 911891312 111177314#0 111177314#1 111177314#2 111177314#4 900882210 900882211#1 169097419#1 900882212 692610297 180667072#0 180667072#1 345748660#0 692610295 169097422 265461443 345736597 345736596 423481788#0 423481788#1 220150011#0 220150011#1 423481777 265461451 23205595 350147738 10492734#0 10492734#1 138203605 138203604#0 387155260#0 387155260#1 220151070#0 220151070#1 220151070#3 4807782#0 4807782#2 -4807778#5 -4807778#4 -4807778#3 -4807778#2 -4807778#1 -4807778#0 366030058#0 366030058#1 366030058#2 366030058#3 40817206#7 23439978#5"/>
        <stop busStop="-3872841423" duration="30.00"/>
    </vehicle>

    <vehicle id="26_bus_103:4" type="pt_bus" depart="207.00" departLane="1" arrival="1048.00">
        <route edges="-37721066#1 -37721066#0 -37721065#1 -37721065#0 -978314929 -9054644 17096022 387498728#0 387498728#1 387498728#2 387498728#3 387498727#0 387498727#1 17096023 383945639 383945640 23032789#0 23032789#1 10698330#0 10698330#1 10698330#2 10698330#4 911891312 111177314#0 111177314#1 111177314#2 111177314#4 900882210 900882211#1 169097419#1 900882212 692610297 180667072#0 180667072#1 345748660#0 692610295 169097422 265461443 345736597 345736596 423481788#0 423481788#1 220150011#0 220150011#1 423481777 265461451 23205595 350147738 10492734#0 10492734#1 138203605 138203604#0 387155260#0 387155260#1 220151070#0 220151070#1 220151070#3 4807782#0 4807782#2 -4807778#5 -4807778#4 -4807778#3 -4807778#2 -4807778#1 -4807778#0 366030058#0 366030058#1 366030058#2 366030058#3 40817206#7 23439978#5"/>
        <stop busStop="-3872841423" duration="30.00"/>
    </vehicle>

    <vehicle id="47_bus_113:1" type="pt_bus" depart="432.00" departLane="1" arrival="1055.00">
        <route edges="675777502 -350217704#3 -350217704#2 -350217704#1 -350217704#0 109592895 17097227 290577629#0 290577631 387401256#1 178668744 178668743 -189364993#0 24511285#1 24511285#2 390216943 -24302935 -474485720 -24008850#0 -474485721 -24008852#3 -24008852#2 -24008852#0 -474485722 -474485723"/>
        <stop busStop="3224629436" duration="30.00"/>
        <stop busStop="-6515317538" duration="30.00"/>
    </vehicle>

    <vehicle id="7_trolleybus_101:0" type="pt_trolleybus" depart="55.00" departLane="0" arrival="1112.00">
        <route edges="4811453#0 4811453#2 4811453#3 4811453#4 4811453#5 -275526211 -4807837#2 -4807837#1 -4807837#0 -54883018#3 -54883018#2 -54883018#1 -178668743 -202630135 -387401256#1 -290577631 163737798 1157387449#0 1157387449#1 1157387455 1157387457 31787956 911970184 911970185 939228251 178668745 146911733 316354392 675777502 400653106 400653105 990451065 823062060 937763472 4807752#0 4807752#1 39008607 378237367 135078202#0 378237361 692537992 692537991#0 378237359#0 378237359#1 378237359#2 378237359#3 378237359#4 378237359#5 378237359#6 387401261 896339465 383983724#0 896339464 23163758 135078205 388285827#0 448974996#0 448974996#1 30010699#0 30010699#1 448974997#0 448974997#1"/>
        <stop busStop="3876394647" duration="30.00"/>
    </vehicle>

    <vehicle id="58_bus_140:0" type="pt_bus" depart="497.00" departLane="0" arrival="1134.00">
        <route edges="268558821#1 -350217704#2 -350217704#1 -350217704#0 109592895 17097227 290577629#0 290577631 387401256#1 178668744 178668743 54883018#1 54883018#2 54883018#3 4807837#0 4807837#1 4807837#2 275526211 -4811453#5 -4811453#4 -4811453#3 -4811453#2 -4811453#1"/>
        <stop busStop="3566577205" duration="30.00"/>
        <stop busStop="-3872841443" duration="30.00"/>
    </vehicle>

    <vehicle id="27_bus_103:5" type="pt_bus" depart="224.00" departLane="1" arrival="1146.00">
        <route edges="-37721066#1 -37721066#0 -37721065#1 -37721065#0 -978314929 -9054644 17096022 387498728#0 387498728#1 387498728#2 387498728#3 387498727#0 387498727#1 17096023 383945639 383945640 23032789#0 23032789#1 10698330#0 10698330#1 10698330#2 10698330#4 911891312 111177314#0 111177314#1 111177314#2 111177314#4 900882210 900882211#1 169097419#1 900882212 692610297 180667072#0 180667072#1 345748660#0 692610295 169097422 265461443 345736597 345736596 423481788#0 423481788#1 220150011#0 220150011#1 423481777 265461451 23205595 350147738 10492734#0 10492734#1 138203605 138203604#0 387155260#0 387155260#1 220151070#0 220151070#1 220151070#3 4807782#0 4807782#2 -4807778#5 -4807778#4 -4807778#3 -4807778#2 -4807778#1 -4807778#0 366030058#0 366030058#1 366030058#2 366030058#3 40817206#7 23439978#5"/>
        <stop busStop="-3872841423" duration="30.00"/>
    </vehicle>

    <vehicle id="25_bus_103:3" type="pt_bus" depart="201.00" departLane="1" arrival="1155.00">
        <route edges="-37721066#1 -37721066#0 -37721065#1 -37721065#0 -978314929 -9054644 17096022 387498728#0 387498728#1 387498728#2 387498728#3 387498727#0 387498727#1 17096023 383945639 383945640 23032789#0 23032789#1 10698330#0 10698330#1 10698330#2 10698330#4 911891312 111177314#0 111177314#1 111177314#2 111177314#4 900882210 900882211#1 169097419#1 900882212 692610297 180667072#0 180667072#1 345748660#0 692610295 169097422 265461443 345736597 345736596 423481788#0 423481788#1 220150011#0 220150011#1 423481777 265461451 23205595 350147738 10492734#0 10492734#1 138203605 138203604#0 387155260#0 387155260#1 220151070#0 220151070#1 220151070#3 4807782#0 4807782#2 -4807778#5 -4807778#4 -4807778#3 -4807778#2 -4807778#1 -4807778#0 366030058#0 366030058#1 366030058#2 366030058#3 40817206#7 23439978#5"/>
        <stop busStop="-3872841423" duration="30.00"/>
    </vehicle>

    <vehicle id="46_bus_113:0" type="pt_bus" depart="389.00" departLane="1" arrival="1158.00">
        <route edges="675777502 -350217704#3 -350217704#2 -350217704#1 -350217704#0 109592895 17097227 290577629#0 1157387454#0 1157387454#1 138203609#0 138203610 387155262 156260255#0 156260255#1 156260255#2 156260255#3 138203607 4807840 23205593#0 26738365#0 26738365#1 265461450 423481774#1 220150010 10492736 345736590 345736580 180667064#0 345736584 265461444#0 692610294 1157387458 345736587#0 345736587#1 30998717#0 11335846#1 926867325 345736604 926867324 265461454 926867322 23182939 265450242 345736606 686955221 926867319 345736600 345736602 345736605 926867315 1079724463 926867314"/>
        <stop busStop="3224629436" duration="30.00"/>
    </vehicle>

    <vehicle id="29_bus_104:1" type="pt_bus" depart="228.00" departLane="0" arrival="1172.00">
        <route edges="386500268#1 -350217704#2 -350217704#1 -350217704#0 109592895 17097227 290577629#0 290577631 387401256#1 178668744 178668743 -189364993#0 24511285#1 24511285#2 390216943 -24302935 -474485720 -24008850#0 -474485721 -24008852#3 -24008852#2 -24008852#0 -474485722 -474485723"/>
        <stop busStop="3566577208" duration="30.00"/>
        <stop busStop="-6515317595" duration="30.00"/>
    </vehicle>

    <vehicle id="62_bus_X20:1" type="pt_bus" depart="835.00" departLane="0" arrival="1179.00">
        <route edges="268558821#1 -146911733 -468914851 -939228251 -911970185 -911970184 -31787956 -1157387457 182055214 1157387448 1157387451#0 1157387454#0 1157387454#1 138203609#0 138203610 17096027#0 17096027#1 17096027#2 220151070#0 220151070#1 220151070#3 4807782#0 4807782#2 4807780#1 4807780#2 169224406#0 169224406#1 694012890 694012889 694012904 -386831074 -386831075 -8812305#1 -8812305#0"/>
        <stop busStop="3566577205" duration="30.00"/>
    </vehicle>

    <vehicle id="12_trolleybus_118:0" type="pt_trolleybus" depart="102.00" departLane="0" arrival="1220.00">