<?xml version="1.0" encoding="UTF-8"?>

<!-- generated on 2025-06-12 14:26:03 by Eclipse SUMO sumo Version 1.19.0
<configuration xmlns:xsi="http://www.w3.org/2001/XMLSchema-instance" xsi:noNamespaceSchemaLocation="http://sumo.dlr.de/xsd/sumoConfiguration.xsd">

    <input>
        <net-file value="Simulation\crr.net.xml"/>
        <route-files value="Simulation\flows.rou.xml"/>
        <additional-files value="Simulation\osm_polygons.add.xml,Simulation\ basic.vType.xml,Simulation\ additional.xml,Simulation\ data.rou.xml"/>
    </input>

    <output>
        <output-prefix value="output."/>
        <emission-output value="Simulation_Temp/emissions.xml"/>
        <summary-output value="Simulation\summary.xml"/>
        <person-summary-output value="Simulation\person.summary.xml"/>
        <tripinfo-output value="Simulation\tripinfo.xml"/>
        <tripinfo-output.write-unfinished value="false"/>
        <statistic-output value="Simulation\statistics.xml"/>
    </output>

    <processing>
        <lateral-resolution value="0.8"/>
        <ignore-junction-blocker value="60"/>
        <ignore-route-errors value="true"/>
        <collision.action value="teleport"/>
        <time-to-teleport value="300"/>
        <max-depart-delay value="900"/>
        <time-to-impatience value="120"/>
        <parking.maneuver value="true"/>
        <pedestrian.model value="striping"/>
        <pedestrian.striping.stripe-width value="0.55"/>
        <pedestrian.striping.dawdling value="0.2"/>
        <pedestrian.striping.jamtime value="60"/>
        <pedestrian.striping.jamtime.crossing value="10"/>
        <pedestrian.striping.reserve-oncoming value="0.25"/>
        <pedestrian.striping.reserve-oncoming.junctions value="0.34"/>
        <ride.stop-tolerance value="25"/>
    </processing>

    <routing>
        <routing-algorithm value="astar"/>
        <persontrip.walkfactor value="0.75"/>
        <persontrip.transfer.car-walk value="parkingAreas,allJunctions"/>
        <persontrip.transfer.taxi-walk value="parkingAreas,allJunctions"/>
        <persontrip.transfer.walk-taxi value="parkingAreas,allJunctions"/>
        <persontrip.taxi.waiting-time value="300"/>
        <device.rerouting.probability value="1"/>
        <device.rerouting.period value="300"/>
        <device.rerouting.pre-period value="300"/>
        <device.rerouting.threads value="64"/>
        <device.rerouting.bike-speeds value="true"/>
        <person-device.rerouting.probability value="1"/>
        <person-device.rerouting.period value="300"/>
    </routing>

    <report>
        <verbose value="true"/>
        <no-warnings value="true"/>
        <duration-log.disable value="false"/>
        <duration-log.statistics value="true"/>
        <no-step-log value="false"/>
        <step-log.period value="100"/>
    </report>

    <taxi_device>
        <device.taxi.dispatch-algorithm value="greedy"/>
        <device.taxi.dispatch-algorithm.output value="Simulation\taxi.dispatch.xml"/>
        <device.taxi.dispatch-period value="60"/>
        <device.taxi.idle-algorithm value="stop"/>
        <device.taxi.idle-algorithm.output value="Simulation\taxi.idle.xml"/>
    </taxi_device>

    <traci_server>
        <remote-port value="52893"/>
    </traci_server>

    <random_number>
        <seed value="42"/>
    </random_number>

    <gui_only>
        <gui-settings-file value="Simulation\default-gui.xml"/>
    </gui_only>

</configuration>
-->

<tripinfos xmlns:xsi="http://www.w3.org/2001/XMLSchema-instance" xsi:noNamespaceSchemaLocation="http://sumo.dlr.de/xsd/tripinfo_file.xsd">
    <tripinfo id="pt_bus_114:5.0" depart="0.00" departLane="-390841675_1" departPos="12.10" departPosLat="0.00" departSpeed="0.00" departDelay="0.00" arrival="215.00" arrivalLane="122574095_1" arrivalPos="35.58" arrivalPosLat="0.00" arrivalSpeed="5.31" duration="215.00" routeLength="1529.70" waitingTime="0.00" waitingCount="0" stopTime="68.00" timeLoss="27.68" rerouteNo="0" devices="tripinfo_pt_bus_114:5.0 routing_pt_bus_114:5.0 emissions_pt_bus_114:5.0" vType="pt_bus" speedFactor="1.00" vaporized="">
        <emissions CO_abs="4711.136439" CO2_abs="2323558.687047" HC_abs="1079.755807" PMx_abs="493.975958" NOx_abs="19671.720557" fuel_abs="735183.333877" electricity_abs="0"/>
    </tripinfo>
    <tripinfo id="pt_light_rail_U13:0.0" depart="0.00" departLane="673171637_0" departPos="109.60" departPosLat="0.00" departSpeed="0.00" departDelay="0.00" arrival="249.00" arrivalLane="172027782#5_0" arrivalPos="1439.03" arrivalPosLat="0.00" arrivalSpeed="1.00" duration="249.00" routeLength="1862.23" waitingTime="0.00" waitingCount="0" stopTime="120.00" timeLoss="61.92" rerouteNo="0" devices="tripinfo_pt_light_rail_U13:0.0 routing_pt_light_rail_U13:0.0 emissions_pt_light_rail_U13:0.0" vType="pt_light_rail" speedFactor="1.00" vaporized="">
        <emissions CO_abs="0" CO2_abs="0" HC_abs="0" PMx_abs="0" NOx_abs="0" fuel_abs="0" electricity_abs="0"/>
    </tripinfo>
    <tripinfo id="pt_light_rail_U13:1.0" depart="0.00" departLane="68552415#0_0" departPos="109.60" departPosLat="0.00" departSpeed="0.00" departDelay="0.00" arrival="254.00" arrivalLane="172027783_0" arrivalPos="98.63" arrivalPosLat="0.00" arrivalSpeed="1.00" duration="254.00" routeLength="1860.56" waitingTime="0.00" waitingCount="0" stopTime="120.00" timeLoss="66.98" rerouteNo="0" devices="tripinfo_pt_light_rail_U13:1.0 routing_pt_light_rail_U13:1.0 emissions_pt_light_rail_U13:1.0" vType="pt_light_rail" speedFactor="1.00" vaporized="">
        <emissions CO_abs="0" CO2_abs="0" HC_abs="0" PMx_abs="0" NOx_abs="0" fuel_abs="0" electricity_abs="0"/>
    </tripinfo>
    <tripinfo id="pt_light_rail_U9:0.0" depart="51.00" departLane="673171637_0" departPos="109.60" departPosLat="0.00" departSpeed="0.00" departDelay="0.00" arrival="265.00" arrivalLane="172027782#5_0" arrivalPos="1439.03" arrivalPosLat="0.00" arrivalSpeed="27.78" duration="214.00" routeLength="1862.23" waitingTime="0.00" waitingCount="0" stopTime="90.00" timeLoss="56.50" rerouteNo="0" devices="tripinfo_pt_light_rail_U9:0.0 routing_pt_light_rail_U9:0.0 emissions_pt_light_rail_U9:0.0" vType="pt_light_rail" speedFactor="1.00" vaporized="">
        <emissions CO_abs="0" CO2_abs="0" HC_abs="0" PMx_abs="0" NOx_abs="0" fuel_abs="0" electricity_abs="0"/>
    </tripinfo>
    <tripinfo id="p1_0" depart="52.00" departLane="-156261679#1_1" departPos="8.23" departPosLat="0.00" departSpeed="0.00" departDelay="0.00" arrival="269.00" arrivalLane="448974986_1" arrivalPos="7.88" arrivalPosLat="-1.27" arrivalSpeed="0.07" duration="217.00" routeLength="1066.36" waitingTime="5.00" waitingCount="2" stopTime="0.00" timeLoss="24.98" rerouteNo="1" devices="tripinfo_p1_0 routing_p1_0 emissions_p1_0 person_p1_0" vType="bicycle" speedFactor="1.00" vaporized="">
        <emissions CO_abs="0" CO2_abs="0" HC_abs="0" PMx_abs="0" NOx_abs="0" fuel_abs="0" electricity_abs="0"/>
    </tripinfo>
    <tripinfo id="pt_bus_61:1.0" depart="0.00" departLane="431444776#1_0" departPos="12.10" departPosLat="0.00" departSpeed="0.00" departDelay="0.00" arrival="276.00" arrivalLane="-676917368#0_1" arrivalPos="22.31" arrivalPosLat="0.00" arrivalSpeed="1.09" duration="276.00" routeLength="1030.97" waitingTime="37.00" waitingCount="3" stopTime="118.00" timeLoss="77.34" rerouteNo="0" devices="tripinfo_pt_bus_61:1.0 routing_pt_bus_61:1.0 emissions_pt_bus_61:1.0" vType="pt_bus" speedFactor="1.00" vaporized="">
        <emissions CO_abs="6016.033802" CO2_abs="2454854.645332" HC_abs="1377.611361" PMx_abs="617.166427" NOx_abs="22573.771785" fuel_abs="776547.576417" electricity_abs="0"/>
    </tripinfo>
    <tripinfo id="pt_light_rail_U9:1.0" depart="52.00" departLane="68552415#0_0" departPos="109.60" departPosLat="0.00" departSpeed="0.00" departDelay="0.00" arrival="306.00" arrivalLane="172027783_0" arrivalPos="98.63" arrivalPosLat="0.00" arrivalSpeed="1.00" duration="254.00" routeLength="1860.56" waitingTime="0.00" waitingCount="0" stopTime="120.00" timeLoss="66.98" rerouteNo="0" devices="tripinfo_pt_light_rail_U9:1.0 routing_pt_light_rail_U9:1.0 emissions_pt_light_rail_U9:1.0" vType="pt_light_rail" speedFactor="1.00" vaporized="">
        <emissions CO_abs="0" CO2_abs="0" HC_abs="0" PMx_abs="0" NOx_abs="0" fuel_abs="0" electricity_abs="0"/>
    </tripinfo>
    <tripinfo id="pt_train_RE_5:0.0" depart="0.00" departLane="156199094#3_0" departPos="135.10" departPosLat="0.00" departSpeed="0.00" departDelay="0.00" arrival="317.00" arrivalLane="48316096#2_0" arrivalPos="589.00" arrivalPosLat="0.00" arrivalSpeed="7.75" duration="317.00" routeLength="4125.58" waitingTime="0.00" waitingCount="0" stopTime="60.00" timeLoss="158.59" rerouteNo="0" devices="tripinfo_pt_train_RE_5:0.0 routing_pt_train_RE_5:0.0 emissions_pt_train_RE_5:0.0" vType="pt_train" speedFactor="1.00" vaporized="">
        <emissions CO_abs="11663.485655" CO2_abs="5896211.708190" HC_abs="2772.382452" PMx_abs="2314.427146" NOx_abs="82412.669696" fuel_abs="1855184.126634" electricity_abs="0"/>
    </tripinfo>
    <tripinfo id="pt_bus_816:1.0" depart="0.00" departLane="-294067066#1_1" departPos="12.10" departPosLat="0.00" departSpeed="0.00" departDelay="0.00" arrival="416.00" arrivalLane="29146499#2_1" arrivalPos="40.22" arrivalPosLat="0.00" arrivalSpeed="3.61" duration="416.00" routeLength="2061.50" waitingTime="49.00" waitingCount="3" stopTime="117.00" timeLoss="105.51" rerouteNo="0" devices="tripinfo_pt_bus_816:1.0 routing_pt_bus_816:1.0 emissions_pt_bus_816:1.0" vType="pt_bus" speedFactor="1.00" vaporized="">
        <emissions CO_abs="9051.770651" CO2_abs="4077033.540232" HC_abs="2051.555638" PMx_abs="937.374076" NOx_abs="35898.250516" fuel_abs="1289837.661164" electricity_abs="0"/>
    </tripinfo>
    <tripinfo id="pt_bus_61:0.0" depart="0.00" departLane="-540190677_1" departPos="12.10" departPosLat="0.00" departSpeed="0.00" departDelay="0.00" arrival="480.00" arrivalLane="-24779203#0_0" arrivalPos="263.70" arrivalPosLat="0.00" arrivalSpeed="5.76" duration="480.00" routeLength="2182.34" waitingTime="5.00" waitingCount="5" stopTime="217.00" timeLoss="100.89" rerouteNo="0" devices="tripinfo_pt_bus_61:0.0 routing_pt_bus_61:0.0 emissions_pt_bus_61:0.0" vType="pt_bus" speedFactor="1.00" vaporized="">
        <emissions CO_abs="11076.011922" CO2_abs="5077961.247203" HC_abs="2460.408372" PMx_abs="1146.146763" NOx_abs="44431.711268" fuel_abs="1606492.908178" electricity_abs="0"/>
    </tripinfo>
    <tripinfo id="p3_0" depart="153.00" departLane="-432904379#0_1" departPos="11.31" departPosLat="0.00" departSpeed="0.00" departDelay="0.00" arrival="497.00" arrivalLane="-17096975#0_1" arrivalPos="10.81" arrivalPosLat="0.45" arrivalSpeed="0.37" duration="344.00" routeLength="3296.07" waitingTime="85.00" waitingCount="3" stopTime="0.00" timeLoss="131.34" rerouteNo="1" devices="tripinfo_p3_0 routing_p3_0 emissions_p3_0 person_p3_0" vType="motorcycle" speedFactor="1.16" vaporized="">
        <emissions CO_abs="47095.167252" CO2_abs="1116327.298199" HC_abs="204.205671" PMx_abs="67.023718" NOx_abs="242.081682" fuel_abs="356100.937555" electricity_abs="0"/>
    </tripinfo>
    <tripinfo id="pt_light_rail_U8:1.0" depart="0.00" departLane="26946520#0_0" departPos="109.60" departPosLat="0.00" departSpeed="0.00" departDelay="0.00" arrival="498.00" arrivalLane="40985104#4_0" arrivalPos="2135.05" arrivalPosLat="0.00" arrivalSpeed="1.00" duration="498.00" routeLength="4576.90" waitingTime="0.00" waitingCount="0" stopTime="210.00" timeLoss="123.20" rerouteNo="0" devices="tripinfo_pt_light_rail_U8:1.0 routing_pt_light_rail_U8:1.0 emissions_pt_light_rail_U8:1.0" vType="pt_light_rail" speedFactor="1.00" vaporized="">
        <emissions CO_abs="0" CO2_abs="0" HC_abs="0" PMx_abs="0" NOx_abs="0" fuel_abs="0" electricity_abs="0"/>
    </tripinfo>
    <tripinfo id="pt_bus_816:0.0" depart="0.00" departLane="29146499#2_1" departPos="12.10" departPosLat="0.00" departSpeed="0.00" departDelay="0.00" arrival="509.00" arrivalLane="294067066#10_1" arrivalPos="37.98" arrivalPosLat="0.00" arrivalSpeed="2.94" duration="509.00" routeLength="2307.06" waitingTime="68.00" waitingCount="4" stopTime="161.00" timeLoss="133.62" rerouteNo="0" devices="tripinfo_pt_bus_816:0.0 routing_pt_bus_816:0.0 emissions_pt_bus_816:0.0" vType="pt_bus" speedFactor="1.00" vaporized="">
        <emissions CO_abs="11066.304086" CO2_abs="4787099.964919" HC_abs="2530.077752" PMx_abs="1142.183537" NOx_abs="42879.024284" fuel_abs="1514420.556804" electricity_abs="0"/>
    </tripinfo>
    <tripinfo id="pt_bus_65:1.0" depart="39.00" departLane="27607327#0_1" departPos="12.10" departPosLat="0.00" departSpeed="0.00" departDelay="0.00" arrival="520.00" arrivalLane="-676917368#0_1" arrivalPos="22.31" arrivalPosLat="0.00" arrivalSpeed="1.13" duration="481.00" routeLength="1888.42" waitingTime="88.00" waitingCount="6" stopTime="151.00" timeLoss="186.18" rerouteNo="0" devices="tripinfo_pt_bus_65:1.0 routing_pt_bus_65:1.0 emissions_pt_bus_65:1.0" vType="pt_bus" speedFactor="1.00" vaporized="">
        <emissions CO_abs="10807.026613" CO2_abs="4712525.094485" HC_abs="2418.112128" PMx_abs="1113.029042" NOx_abs="42126.706911" fuel_abs="1490802.019029" electricity_abs="0"/>
    </tripinfo>
    <tripinfo id="pt_light_rail_U7:1.0" depart="15.00" departLane="26946520#0_0" departPos="109.60" departPosLat="0.00" departSpeed="0.00" departDelay="0.00" arrival="549.00" arrivalLane="40985104#4_0" arrivalPos="2135.05" arrivalPosLat="0.00" arrivalSpeed="1.00" duration="534.00" routeLength="4576.90" waitingTime="25.00" waitingCount="1" stopTime="210.00" timeLoss="159.20" rerouteNo="0" devices="tripinfo_pt_light_rail_U7:1.0 routing_pt_light_rail_U7:1.0 emissions_pt_light_rail_U7:1.0" vType="pt_light_rail" speedFactor="1.00" vaporized="">
        <emissions CO_abs="0" CO2_abs="0" HC_abs="0" PMx_abs="0" NOx_abs="0" fuel_abs="0" electricity_abs="0"/>
    </tripinfo>
    <tripinfo id="pt_light_rail_U8:0.0" depart="0.00" departLane="89344777#0_0" departPos="109.60" departPosLat="0.00" departSpeed="0.00" departDelay="0.00" arrival="558.00" arrivalLane="26946516#1_0" arrivalPos="1910.04" arrivalPosLat="0.00" arrivalSpeed="27.78" duration="558.00" routeLength="5963.27" waitingTime="0.00" waitingCount="0" stopTime="210.00" timeLoss="132.34" rerouteNo="0" devices="tripinfo_pt_light_rail_U8:0.0 routing_pt_light_rail_U8:0.0 emissions_pt_light_rail_U8:0.0" vType="pt_light_rail" speedFactor="1.00" vaporized="">
        <emissions CO_abs="0" CO2_abs="0" HC_abs="0" PMx_abs="0" NOx_abs="0" fuel_abs="0" electricity_abs="0"/>
    </tripinfo>
    <tripinfo id="pt_light_rail_U7:0.0" depart="52.00" departLane="89344777#0_0" departPos="109.60" departPosLat="0.00" departSpeed="0.00" departDelay="0.00" arrival="610.00" arrivalLane="26946516#1_0" arrivalPos="1910.04" arrivalPosLat="0.00" arrivalSpeed="27.78" duration="558.00" routeLength="5963.27" waitingTime="0.00" waitingCount="0" stopTime="210.00" timeLoss="132.34" rerouteNo="0" devices="tripinfo_pt_light_rail_U7:0.0 routing_pt_light_rail_U7:0.0 emissions_pt_light_rail_U7:0.0" vType="pt_light_rail" speedFactor="1.00" vaporized="">
        <emissions CO_abs="0" CO2_abs="0" HC_abs="0" PMx_abs="0" NOx_abs="0" fuel_abs="0" electricity_abs="0"/>
    </tripinfo>
    <tripinfo id="pt_bus_65:0.0" depart="0.00" departLane="-676917368#0_1" departPos="12.10" departPosLat="0.00" departSpeed="0.00" departDelay="0.00" arrival="627.00" arrivalLane="-27607327#1_1" arrivalPos="46.34" arrivalPosLat="0.00" arrivalSpeed="1.49" duration="627.00" routeLength="2396.96" waitingTime="103.00" waitingCount="10" stopTime="209.00" timeLoss="237.91" rerouteNo="0" devices="tripinfo_pt_bus_65:0.0 routing_pt_bus_65:0.0 emissions_pt_bus_65:0.0" vType="pt_bus" speedFactor="1.00" vaporized="">
        <emissions CO_abs="14195.259137" CO2_abs="6219830.304808" HC_abs="3162.190662" PMx_abs="1461.872899" NOx_abs="55500.126765" fuel_abs="1967637.282782" electricity_abs="0"/>
    </tripinfo>
    <tripinfo id="p0_0" depart="79.00" departLane="-400416447#2_1" departPos="6.43" departPosLat="0.00" departSpeed="0.00" departDelay="0.00" arrival="629.00" arrivalLane="4811294_1" arrivalPos="66.17" arrivalPosLat="-1.27" arrivalSpeed="0.17" duration="550.00" routeLength="2593.96" waitingTime="30.00" waitingCount="1" stopTime="0.00" timeLoss="67.02" rerouteNo="1" devices="tripinfo_p0_0 routing_p0_0 emissions_p0_0 person_p0_0" vType="bicycle" speedFactor="0.99" vaporized="">
        <emissions CO_abs="0" CO2_abs="0" HC_abs="0" PMx_abs="0" NOx_abs="0" fuel_abs="0" electricity_abs="0"/>
    </tripinfo>
    <tripinfo id="pt_bus_121:0.0" depart="0.00" departLane="-392589607#0_1" departPos="12.10" departPosLat="0.00" departSpeed="0.00" departDelay="0.00" arrival="658.00" arrivalLane="613655965_1" arrivalPos="255.51" arrivalPosLat="0.00" arrivalSpeed="7.59" duration="658.00" routeLength="3513.31" waitingTime="46.00" waitingCount="4" stopTime="252.00" timeLoss="148.45" rerouteNo="0" devices="tripinfo_pt_bus_121:0.0 routing_pt_bus_121:0.0 emissions_pt_bus_121:0.0" vType="pt_bus" speedFactor="1.00" vaporized="">
        <emissions CO_abs="15017.920080" CO2_abs="6960891.395427" HC_abs="3387.485629" PMx_abs="1559.365805" NOx_abs="60557.533359" fuel_abs="2202256.917526" electricity_abs="0"/>
    </tripinfo>
    <tripinfo id="p4_0" depart="81.00" departLane="-400416447#2_1" departPos="6.43" departPosLat="0.00" departSpeed="0.00" departDelay="0.00" arrival="670.00" arrivalLane="1250554952#1_1" arrivalPos="1.84" arrivalPosLat="-1.27" arrivalSpeed="0.32" duration="589.00" routeLength="2439.18" waitingTime="4.00" waitingCount="1" stopTime="0.00" timeLoss="49.80" rerouteNo="1" devices="tripinfo_p4_0 routing_p4_0 emissions_p4_0 person_p4_0" vType="bicycle" speedFactor="0.82" vaporized="">
        <emissions CO_abs="0" CO2_abs="0" HC_abs="0" PMx_abs="0" NOx_abs="0" fuel_abs="0" electricity_abs="0"/>
    </tripinfo>
    <tripinfo id="pt_bus_121:1.0" depart="12.00" departLane="-207082664_1" departPos="12.10" departPosLat="0.00" departSpeed="0.00" departDelay="0.00" arrival="687.00" arrivalLane="392589607#3_1" arrivalPos="31.11" arrivalPosLat="0.00" arrivalSpeed="5.97" duration="675.00" routeLength="3629.01" waitingTime="57.00" waitingCount="3" stopTime="244.00" timeLoss="165.87" rerouteNo="0" devices="tripinfo_pt_bus_121:1.0 routing_pt_bus_121:1.0 emissions_pt_bus_121:1.0" vType="pt_bus" speedFactor="1.00" vaporized="">
        <emissions CO_abs="14827.157868" CO2_abs="6751658.563077" HC_abs="3376.687784" PMx_abs="1538.434582" NOx_abs="59147.388152" fuel_abs="2136040.756275" electricity_abs="0"/>
    </tripinfo>
    <tripinfo id="pt_bus_62:0.0" depart="0.00" departLane="27607327#0_1" departPos="12.10" departPosLat="0.00" departSpeed="0.00" departDelay="0.00" arrival="689.00" arrivalLane="-195389808#1_1" arrivalPos="142.50" arrivalPosLat="0.00" arrivalSpeed="10.80" duration="689.00" routeLength="3518.45" waitingTime="49.00" waitingCount="8" stopTime="249.00" timeLoss="176.44" rerouteNo="0" devices="tripinfo_pt_bus_62:0.0 routing_pt_bus_62:0.0 emissions_pt_bus_62:0.0" vType="pt_bus" speedFactor="1.00" vaporized="">
        <emissions CO_abs="15759.788371" CO2_abs="7321983.196162" HC_abs="3522.348520" PMx_abs="1634.764260" NOx_abs="63675.009452" fuel_abs="2316478.577299" electricity_abs="0"/>
    </tripinfo>
    <tripinfo id="pt_bus_X20:1.0" depart="39.00" departLane="268558821#1_1" departPos="12.10" departPosLat="0.00" departSpeed="0.00" departDelay="32.00" arrival="764.00" arrivalLane="-232962013#1_1" arrivalPos="13.55" arrivalPosLat="0.00" arrivalSpeed="0.73" duration="725.00" routeLength="5682.81" waitingTime="65.00" waitingCount="6" stopTime="72.00" timeLoss="146.73" rerouteNo="0" devices="tripinfo_pt_bus_X20:1.0 routing_pt_bus_X20:1.0 emissions_pt_bus_X20:1.0" vType="pt_bus" speedFactor="1.00" vaporized="">
        <emissions CO_abs="15672.317373" CO2_abs="8243104.225609" HC_abs="3527.057543" PMx_abs="1652.695966" NOx_abs="68075.379423" fuel_abs="2608278.263422" electricity_abs="0"/>
    </tripinfo>
    <tripinfo id="pt_bus_X20:0.0" depart="0.00" departLane="232962013#1_1" departPos="12.10" departPosLat="0.00" departSpeed="0.00" departDelay="0.00" arrival="791.00" arrivalLane="268558821#1_1" arrivalPos="28.71" arrivalPosLat="0.00" arrivalSpeed="1.58" duration="791.00" routeLength="7121.57" waitingTime="21.00" waitingCount="3" stopTime="130.00" timeLoss="113.46" rerouteNo="0" devices="tripinfo_pt_bus_X20:0.0 routing_pt_bus_X20:0.0 emissions_pt_bus_X20:0.0" vType="pt_bus" speedFactor="1.00" vaporized="">
        <emissions CO_abs="18339.003732" CO2_abs="10237112.367156" HC_abs="4085.030645" PMx_abs="1946.842220" NOx_abs="82652.685074" fuel_abs="3239383.769356" electricity_abs="0"/>
    </tripinfo>
    <tripinfo id="pt_bus_119:1.0" depart="0.00" departLane="569733700#3_1" departPos="12.10" departPosLat="0.00" departSpeed="0.00" departDelay="0.00" arrival="797.00" arrivalLane="268558823#1_1" arrivalPos="25.19" arrivalPosLat="0.00" arrivalSpeed="0.74" duration="797.00" routeLength="4410.99" waitingTime="10.00" waitingCount="5" stopTime="317.00" timeLoss="127.85" rerouteNo="0" devices="tripinfo_pt_bus_119:1.0 routing_pt_bus_119:1.0 emissions_pt_bus_119:1.0 person_pt_bus_119:1.0" vType="pt_bus" speedFactor="1.00" vaporized="">
        <emissions CO_abs="17496.388105" CO2_abs="8048166.577369" HC_abs="3983.989717" PMx_abs="1817.495418" NOx_abs="70199.169800" fuel_abs="2546250.701474" electricity_abs="0"/>
    </tripinfo>
    <tripinfo id="pt_bus_140:1.0" depart="0.00" departLane="-39761675#3_1" departPos="12.10" departPosLat="0.00" departSpeed="0.00" departDelay="0.00" arrival="829.00" arrivalLane="268558821#1_1" arrivalPos="28.71" arrivalPosLat="0.00" arrivalSpeed="1.82" duration="829.00" routeLength="4728.53" waitingTime="186.00" waitingCount="8" stopTime="181.00" timeLoss="305.24" rerouteNo="0" devices="tripinfo_pt_bus_140:1.0 routing_pt_bus_140:1.0 emissions_pt_bus_140:1.0" vType="pt_bus" speedFactor="1.00" vaporized="">
        <emissions CO_abs="18399.997579" CO2_abs="8518975.065564" HC_abs="4189.837885" PMx_abs="1912.826115" NOx_abs="74098.880507" fuel_abs="2695224.128449" electricity_abs="0"/>
    </tripinfo>
    <tripinfo id="pt_bus_119:0.0" depart="0.00" departLane="268558823#1_1" departPos="12.10" departPosLat="0.00" departSpeed="0.00" departDelay="0.00" arrival="846.00" arrivalLane="-127121917#0_1" arrivalPos="103.63" arrivalPosLat="0.00" arrivalSpeed="0.99" duration="846.00" routeLength="4303.86" waitingTime="93.00" waitingCount="10" stopTime="282.00" timeLoss="221.88" rerouteNo="0" devices="tripinfo_pt_bus_119:0.0 routing_pt_bus_119:0.0 emissions_pt_bus_119:0.0" vType="pt_bus" speedFactor="1.00" vaporized="">
        <emissions CO_abs="18787.256230" CO2_abs="8500011.521703" HC_abs="4259.715576" PMx_abs="1946.662333" NOx_abs="74694.963775" fuel_abs="2689136.484678" electricity_abs="0"/>
    </tripinfo>
    <tripinfo id="pt_light_rail_U9:0.1" depart="651.00" departLane="673171637_0" departPos="109.60" departPosLat="0.00" departSpeed="0.00" departDelay="0.00" arrival="865.00" arrivalLane="172027782#5_0" arrivalPos="1439.03" arrivalPosLat="0.00" arrivalSpeed="27.78" duration="214.00" routeLength="1862.23" waitingTime="0.00" waitingCount="0" stopTime="90.00" timeLoss="56.50" rerouteNo="0" devices="tripinfo_pt_light_rail_U9:0.1 routing_pt_light_rail_U9:0.1 emissions_pt_light_rail_U9:0.1" vType="pt_light_rail" speedFactor="1.00" vaporized="">
        <emissions CO_abs="0" CO2_abs="0" HC_abs="0" PMx_abs="0" NOx_abs="0" fuel_abs="0" electricity_abs="0"/>
    </tripinfo>
    <tripinfo id="pt_bus_140:0.0" depart="0.00" departLane="268558821#1_1" departPos="12.10" departPosLat="0.00" departSpeed="0.00" departDelay="0.00" arrival="866.00" arrivalLane="39761675#3_1" arrivalPos="87.90" arrivalPosLat="0.00" arrivalSpeed="2.56" duration="866.00" routeLength="5368.93" waitingTime="140.00" waitingCount="11" stopTime="189.00" timeLoss="279.69" rerouteNo="0" devices="tripinfo_pt_bus_140:0.0 routing_pt_bus_140:0.0 emissions_pt_bus_140:0.0" vType="pt_bus" speedFactor="1.00" vaporized="">
        <emissions CO_abs="19185.606693" CO2_abs="9136426.343658" HC_abs="4359.791365" PMx_abs="2000.634478" NOx_abs="78535.749845" fuel_abs="2890659.909016" electricity_abs="0"/>
    </tripinfo>
    <tripinfo id="pt_light_rail_U9:1.1" depart="652.00" departLane="68552415#0_0" departPos="109.60" departPosLat="0.00" departSpeed="0.00" departDelay="0.00" arrival="906.00" arrivalLane="172027783_0" arrivalPos="98.63" arrivalPosLat="0.00" arrivalSpeed="1.00" duration="254.00" routeLength="1860.56" waitingTime="0.00" waitingCount="0" stopTime="120.00" timeLoss="66.98" rerouteNo="0" devices="tripinfo_pt_light_rail_U9:1.1 routing_pt_light_rail_U9:1.1 emissions_pt_light_rail_U9:1.1" vType="pt_light_rail" speedFactor="1.00" vaporized="">
        <emissions CO_abs="0" CO2_abs="0" HC_abs="0" PMx_abs="0" NOx_abs="0" fuel_abs="0" electricity_abs="0"/>
    </tripinfo>
    <tripinfo id="pt_bus_120:1.0" depart="0.00" departLane="177336121_1" departPos="12.10" departPosLat="0.00" departSpeed="0.00" departDelay="0.00" arrival="916.00" arrivalLane="384972991#1_1" arrivalPos="28.13" arrivalPosLat="0.00" arrivalSpeed="0.67" duration="916.00" routeLength="4570.33" waitingTime="115.00" waitingCount="6" stopTime="305.00" timeLoss="249.47" rerouteNo="0" devices="tripinfo_pt_bus_120:1.0 routing_pt_bus_120:1.0 emissions_pt_bus_120:1.0" vType="pt_bus" speedFactor="1.00" vaporized="">
        <emissions CO_abs="20049.208477" CO2_abs="8927210.245786" HC_abs="4568.395353" PMx_abs="2075.067906" NOx_abs="78969.255544" fuel_abs="2824251.548931" electricity_abs="0"/>
    </tripinfo>
    <tripinfo id="pt_train_S1:1.0" depart="0.00" departLane="123444522#1_0" departPos="135.10" departPosLat="0.00" departSpeed="0.00" departDelay="0.00" arrival="947.00" arrivalLane="23163786#1_0" arrivalPos="616.75" arrivalPosLat="0.00" arrivalSpeed="7.50" duration="947.00" routeLength="10689.15" waitingTime="0.00" waitingCount="0" stopTime="180.00" timeLoss="435.15" rerouteNo="0" devices="tripinfo_pt_train_S1:1.0 routing_pt_train_S1:1.0 emissions_pt_train_S1:1.0" vType="pt_train" speedFactor="1.00" vaporized="">
        <emissions CO_abs="31565.550745" CO2_abs="16121374.072651" HC_abs="7941.341851" PMx_abs="6368.483715" NOx_abs="224590.337422" fuel_abs="5072459.511173" electricity_abs="0"/>
    </tripinfo>
    <tripinfo id="pt_train_S1:0.0" depart="0.00" departLane="292876200#2_0" departPos="135.10" departPosLat="0.00" departSpeed="0.00" departDelay="0.00" arrival="948.00" arrivalLane="180784454#2_0" arrivalPos="2403.09" arrivalPosLat="0.00" arrivalSpeed="7.00" duration="948.00" routeLength="10699.83" waitingTime="0.00" waitingCount="0" stopTime="180.00" timeLoss="438.09" rerouteNo="0" devices="tripinfo_pt_train_S1:0.0 routing_pt_train_S1:0.0 emissions_pt_train_S1:0.0" vType="pt_train" speedFactor="1.00" vaporized="">
        <emissions CO_abs="31600.304965" CO2_abs="16138980.749879" HC_abs="7956.413528" PMx_abs="6376.682066" NOx_abs="224824.704355" fuel_abs="5077999.600470" electricity_abs="0"/>
    </tripinfo>
    <tripinfo id="pt_bus_109:1.0" depart="0.00" departLane="387117388_1" departPos="1.30" departPosLat="0.00" departSpeed="0.00" departDelay="0.00" arrival="975.00" arrivalLane="-386500268#0_1" arrivalPos="71.25" arrivalPosLat="0.00" arrivalSpeed="5.20" duration="975.00" routeLength="4676.02" waitingTime="22.00" waitingCount="7" stopTime="373.00" timeLoss="141.16" rerouteNo="0" devices="tripinfo_pt_bus_109:1.0 routing_pt_bus_109:1.0 emissions_pt_bus_109:1.0" vType="pt_bus" speedFactor="1.00" vaporized="">
        <emissions CO_abs="20736.801250" CO2_abs="8956879.103714" HC_abs="4791.764642" PMx_abs="2143.206701" NOx_abs="80219.483791" fuel_abs="2833583.333729" electricity_abs="0"/>
    </tripinfo>
    <tripinfo id="pt_bus_114:0.0" depart="0.00" departLane="384972991#1_1" departPos="12.10" departPosLat="0.00" departSpeed="0.00" departDelay="0.00" arrival="1025.00" arrivalLane="846930959_1" arrivalPos="96.74" arrivalPosLat="0.00" arrivalSpeed="12.05" duration="1025.00" routeLength="5664.17" waitingTime="193.00" waitingCount="11" stopTime="226.00" timeLoss="355.79" rerouteNo="0" devices="tripinfo_pt_bus_114:0.0 routing_pt_bus_114:0.0 emissions_pt_bus_114:0.0" vType="pt_bus" speedFactor="1.00" vaporized="">
        <emissions CO_abs="22767.860430" CO2_abs="10579974.542782" HC_abs="5134.335553" PMx_abs="2364.703043" NOx_abs="91943.577549" fuel_abs="3347256.008920" electricity_abs="0"/>
    </tripinfo>
    <tripinfo id="pt_bus_114:1.0" depart="0.00" departLane="-846930959_1" departPos="12.10" departPosLat="0.00" departSpeed="0.00" departDelay="0.00" arrival="1095.00" arrivalLane="384972991#1_1" arrivalPos="28.13" arrivalPosLat="0.00" arrivalSpeed="0.94" duration="1095.00" routeLength="4964.62" waitingTime="332.00" waitingCount="18" stopTime="209.00" timeLoss="499.70" rerouteNo="0" devices="tripinfo_pt_bus_114:1.0 routing_pt_bus_114:1.0 emissions_pt_bus_114:1.0" vType="pt_bus" speedFactor="1.00" vaporized="">
        <emissions CO_abs="24228.934089" CO2_abs="10634532.302940" HC_abs="5492.896995" PMx_abs="2501.802867" NOx_abs="94702.006383" fuel_abs="3364306.272656" electricity_abs="0"/>
    </tripinfo>
    <tripinfo id="pt_bus_N19:0.0" depart="142.00" departLane="268558823#1_1" departPos="12.10" departPosLat="0.00" departSpeed="0.00" departDelay="0.00" arrival="1095.00" arrivalLane="576816774#0_1" arrivalPos="239.14" arrivalPosLat="0.00" arrivalSpeed="11.12" duration="953.00" routeLength="4504.22" waitingTime="290.00" waitingCount="10" stopTime="190.00" timeLoss="432.18" rerouteNo="0" devices="tripinfo_pt_bus_N19:0.0 routing_pt_bus_N19:0.0 emissions_pt_bus_N19:0.0" vType="pt_bus" speedFactor="1.00" vaporized="">
        <emissions CO_abs="21361.065220" CO2_abs="9457736.162985" HC_abs="4849.710989" PMx_abs="2208.293427" NOx_abs="83891.598153" fuel_abs="2992056.578516" electricity_abs="0"/>
    </tripinfo>