<?xml version="1.0" encoding="UTF-8"?>

<!-- generated on 2025-03-22 11:48:50 by Eclipse SUMO sumo Version 1.19.0
<configuration xmlns:xsi="http://www.w3.org/2001/XMLSchema-instance" xsi:noNamespaceSchemaLocation="http://sumo.dlr.de/xsd/sumoConfiguration.xsd">

    <input>
        <net-file value="Simulation\crr.net.xml"/>
        <route-files value="Simulation\flows.rou.xml"/>
        <additional-files value="Simulation\osm_polygons.add.xml,Simulation\ basic.vType.xml,Simulation\ additional.xml,Simulation\ data.rou.xml"/>
    </input>

    <output>
        <output-prefix value="output."/>
        <emission-output value="emissions.xml"/>
        <summary-output value="Simulation\summary.xml"/>
        <person-summary-output value="Simulation\person.summary.xml"/>
        <tripinfo-output value="Simulation\tripinfo.xml"/>
        <tripinfo-output.write-unfinished value="false"/>
        <statistic-output value="Simulation\statistics.xml"/>
    </output>

    <processing>
        <lateral-resolution value="0.8"/>
        <ignore-junction-blocker value="60"/>
        <ignore-route-errors value="true"/>
        <collision.action value="teleport"/>
        <time-to-teleport value="300"/>
        <max-depart-delay value="900"/>
        <time-to-impatience value="120"/>
        <parking.maneuver value="true"/>
        <pedestrian.model value="striping"/>
        <pedestrian.striping.stripe-width value="0.55"/>
        <pedestrian.striping.dawdling value="0.2"/>
        <pedestrian.striping.jamtime value="60"/>
        <pedestrian.striping.jamtime.crossing value="10"/>
        <pedestrian.striping.reserve-oncoming value="0.25"/>
        <pedestrian.striping.reserve-oncoming.junctions value="0.34"/>
        <ride.stop-tolerance value="25"/>
    </processing>

    <routing>
        <routing-algorithm value="astar"/>
        <persontrip.walkfactor value="0.75"/>
        <persontrip.transfer.car-walk value="parkingAreas,allJunctions"/>
        <persontrip.transfer.taxi-walk value="parkingAreas,allJunctions"/>
        <persontrip.transfer.walk-taxi value="parkingAreas,allJunctions"/>
        <persontrip.taxi.waiting-time value="300"/>
        <device.rerouting.probability value="1"/>
        <device.rerouting.period value="300"/>
        <device.rerouting.pre-period value="300"/>
        <device.rerouting.threads value="64"/>
        <device.rerouting.bike-speeds value="true"/>
        <person-device.rerouting.probability value="1"/>
        <person-device.rerouting.period value="300"/>
    </routing>

    <report>
        <verbose value="true"/>
        <no-warnings value="true"/>
        <duration-log.disable value="false"/>
        <duration-log.statistics value="true"/>
        <no-step-log value="false"/>
        <step-log.period value="100"/>
    </report>

    <taxi_device>
        <device.taxi.dispatch-algorithm value="greedy"/>
        <device.taxi.dispatch-algorithm.output value="Simulation\taxi.dispatch.xml"/>
        <device.taxi.dispatch-period value="60"/>
        <device.taxi.idle-algorithm value="stop"/>
        <device.taxi.idle-algorithm.output value="Simulation\taxi.idle.xml"/>
    </taxi_device>

    <traci_server>
        <remote-port value="49789"/>
    </traci_server>

    <random_number>
        <seed value="42"/>
    </random_number>

    <gui_only>
        <gui-settings-file value="Simulation\default-gui.xml"/>
    </gui_only>

</configuration>
-->

<tripinfos xmlns:xsi="http://www.w3.org/2001/XMLSchema-instance" xsi:noNamespaceSchemaLocation="http://sumo.dlr.de/xsd/tripinfo_file.xsd">
    <personinfo id="p1" depart="0.00" type="DEFAULT_PEDTYPE" speedFactor="1.07">
        <walk depart="0.00" departPos="0.00" arrival="-1" arrivalPos="-1" duration="0.00" routeLength="-1" timeLoss="0.00" maxSpeed="1.49"/>
        <stop duration="0.00" arrival="-0.00" arrivalPos="29.54" actType="singing"/>
        <stop duration="0.00" arrival="-0.00" arrivalPos="3.34" actType="singing"/>
        <stop duration="0.00" arrival="-0.00" arrivalPos="533.13" actType="singing"/>
        <stop duration="0.00" arrival="-0.00" arrivalPos="29.54" actType="singing"/>
        <stop duration="0.00" arrival="-0.00" arrivalPos="533.13" actType="singing"/>
        <stop duration="0.00" arrival="-0.00" arrivalPos="29.54" actType="singing"/>
        <stop duration="0.00" arrival="-0.00" arrivalPos="45.60" actType="singing"/>
        <stop duration="0.00" arrival="-0.00" arrivalPos="533.13" actType="singing"/>
        <stop duration="0.00" arrival="-0.00" arrivalPos="14.28" actType="singing"/>
        <stop duration="0.00" arrival="-0.00" arrivalPos="533.13" actType="singing"/>
    </personinfo>
    <personinfo id="p5" depart="0.00" type="DEFAULT_PEDTYPE" speedFactor="1.08">
        <walk depart="0.00" departPos="0.00" arrival="-1" arrivalPos="-1" duration="0.00" routeLength="-1" timeLoss="0.00" maxSpeed="1.51"/>
        <stop duration="0.00" arrival="-0.00" arrivalPos="29.70" actType="singing"/>
        <stop duration="0.00" arrival="-0.00" arrivalPos="40.44" actType="singing"/>
        <stop duration="0.00" arrival="-0.00" arrivalPos="533.13" actType="singing"/>
        <stop duration="0.00" arrival="-0.00" arrivalPos="16.02" actType="singing"/>
        <stop duration="0.00" arrival="-0.00" arrivalPos="533.13" actType="singing"/>
        <stop duration="0.00" arrival="-0.00" arrivalPos="26.88" actType="singing"/>
        <stop duration="0.00" arrival="-0.00" arrivalPos="533.13" actType="singing"/>
        <stop duration="0.00" arrival="-0.00" arrivalPos="6.30" actType="singing"/>
        <stop duration="0.00" arrival="-0.00" arrivalPos="533.13" actType="singing"/>
        <stop duration="0.00" arrival="-0.00" arrivalPos="46.31" actType="singing"/>
    </personinfo>
    <personinfo id="p6" depart="0.00" type="DEFAULT_PEDTYPE" speedFactor="1.03">
        <walk depart="0.00" departPos="0.00" arrival="-1" arrivalPos="-1" duration="0.00" routeLength="-1" timeLoss="0.00" maxSpeed="1.43"/>
        <stop duration="0.00" arrival="-0.00" arrivalPos="68.28" actType="singing"/>
        <stop duration="0.00" arrival="-0.00" arrivalPos="533.13" actType="singing"/>
        <stop duration="0.00" arrival="-0.00" arrivalPos="7.88" actType="singing"/>
        <stop duration="0.00" arrival="-0.00" arrivalPos="19.32" actType="singing"/>
        <stop duration="0.00" arrival="-0.00" arrivalPos="533.13" actType="singing"/>
        <stop duration="0.00" arrival="-0.00" arrivalPos="7.88" actType="singing"/>
        <stop duration="0.00" arrival="-0.00" arrivalPos="533.13" actType="singing"/>
        <stop duration="0.00" arrival="-0.00" arrivalPos="7.88" actType="singing"/>
        <stop duration="0.00" arrival="-0.00" arrivalPos="533.13" actType="singing"/>
        <stop duration="0.00" arrival="-0.00" arrivalPos="7.47" actType="singing"/>
    </personinfo>
    <personinfo id="p7" depart="0.00" type="DEFAULT_PEDTYPE" speedFactor="1.13">
        <walk depart="0.00" departPos="0.00" arrival="-1" arrivalPos="-1" duration="0.00" routeLength="-1" timeLoss="0.00" maxSpeed="1.57"/>
        <stop duration="0.00" arrival="-0.00" arrivalPos="8.98" actType="singing"/>
        <stop duration="0.00" arrival="-0.00" arrivalPos="64.53" actType="singing"/>
        <stop duration="0.00" arrival="-0.00" arrivalPos="65.60" actType="singing"/>
        <stop duration="0.00" arrival="-0.00" arrivalPos="0.10" actType="singing"/>
        <stop duration="0.00" arrival="-0.00" arrivalPos="533.13" actType="singing"/>
        <stop duration="0.00" arrival="-0.00" arrivalPos="8.98" actType="singing"/>
        <stop duration="0.00" arrival="-0.00" arrivalPos="25.90" actType="singing"/>
        <stop duration="0.00" arrival="-0.00" arrivalPos="533.13" actType="singing"/>
        <stop duration="0.00" arrival="-0.00" arrivalPos="8.98" actType="singing"/>
        <stop duration="0.00" arrival="-0.00" arrivalPos="27.84" actType="singing"/>
    </personinfo>
    <personinfo id="p9" depart="0.00" type="DEFAULT_PEDTYPE" speedFactor="0.84">
        <walk depart="0.00" departPos="0.00" arrival="-1" arrivalPos="-1" duration="0.00" routeLength="-1" timeLoss="0.00" maxSpeed="1.17"/>
        <stop duration="0.00" arrival="-0.00" arrivalPos="7.83" actType="singing"/>
        <stop duration="0.00" arrival="-0.00" arrivalPos="8.86" actType="singing"/>
        <stop duration="0.00" arrival="-0.00" arrivalPos="533.13" actType="singing"/>
        <stop duration="0.00" arrival="-0.00" arrivalPos="32.99" actType="singing"/>
        <stop duration="0.00" arrival="-0.00" arrivalPos="38.74" actType="singing"/>
        <stop duration="0.00" arrival="-0.00" arrivalPos="533.13" actType="singing"/>
        <stop duration="0.00" arrival="-0.00" arrivalPos="21.82" actType="singing"/>
        <stop duration="0.00" arrival="-0.00" arrivalPos="533.13" actType="singing"/>
        <stop duration="0.00" arrival="-0.00" arrivalPos="10.23" actType="singing"/>
        <stop duration="0.00" arrival="-0.00" arrivalPos="533.13" actType="singing"/>
    </personinfo>
</tripinfos>
