<?xml version="1.0" encoding="UTF-8"?>

<!-- generated on 2025-05-31 12:44:16 by Eclipse SUMO sumo Version 1.23.1
<sumoConfiguration xmlns:xsi="http://www.w3.org/2001/XMLSchema-instance" xsi:noNamespaceSchemaLocation="http://sumo.dlr.de/xsd/sumoConfiguration.xsd">

    <input>
        <net-file value="Simulation\crr.net.xml"/>
        <route-files value="Simulation\flows.rou.xml"/>
        <additional-files value="Simulation\osm_polygons.add.xml,Simulation\ basic.vType.xml,Simulation\ additional.xml,Simulation\ data.rou.xml"/>
    </input>

    <output>
        <output-prefix value="output."/>
        <emission-output value="emissions.xml"/>
        <summary-output value="Simulation\summary.xml"/>
        <person-summary-output value="Simulation\person.summary.xml"/>
        <tripinfo-output value="Simulation\tripinfo.xml"/>
        <tripinfo-output.write-unfinished value="false"/>
        <statistic-output value="Simulation\statistics.xml"/>
    </output>

    <processing>
        <lateral-resolution value="0.8"/>
        <ignore-junction-blocker value="60"/>
        <ignore-route-errors value="true"/>
        <collision.action value="teleport"/>
        <time-to-teleport value="300"/>
        <max-depart-delay value="900"/>
        <time-to-impatience value="120"/>
        <parking.maneuver value="true"/>
        <pedestrian.model value="striping"/>
        <pedestrian.striping.stripe-width value="0.55"/>
        <pedestrian.striping.dawdling value="0.2"/>
        <pedestrian.striping.jamtime value="60"/>
        <pedestrian.striping.jamtime.crossing value="10"/>
        <pedestrian.striping.reserve-oncoming value="0.25"/>
        <pedestrian.striping.reserve-oncoming.junctions value="0.34"/>
        <ride.stop-tolerance value="25"/>
    </processing>

    <routing>
        <routing-algorithm value="astar"/>
        <persontrip.walkfactor value="0.75"/>
        <persontrip.transfer.car-walk value="parkingAreas,allJunctions"/>
        <persontrip.transfer.taxi-walk value="parkingAreas,allJunctions"/>
        <persontrip.transfer.walk-taxi value="parkingAreas,allJunctions"/>
        <persontrip.taxi.waiting-time value="300"/>
        <device.rerouting.probability value="1"/>
        <device.rerouting.period value="300"/>
        <device.rerouting.pre-period value="300"/>
        <device.rerouting.threads value="64"/>
        <device.rerouting.bike-speeds value="true"/>
        <person-device.rerouting.probability value="1"/>
        <person-device.rerouting.period value="300"/>
    </routing>

    <report>
        <verbose value="true"/>
        <no-warnings value="true"/>
        <duration-log.disable value="false"/>
        <duration-log.statistics value="true"/>
        <no-step-log value="false"/>
        <step-log.period value="100"/>
    </report>

    <taxi_device>
        <device.taxi.dispatch-algorithm value="greedy"/>
        <device.taxi.dispatch-algorithm.output value="Simulation\taxi.dispatch.xml"/>
        <device.taxi.dispatch-period value="60"/>
        <device.taxi.idle-algorithm value="stop"/>
        <device.taxi.idle-algorithm.output value="Simulation\taxi.idle.xml"/>
    </taxi_device>

    <traci_server>
        <remote-port value="64963"/>
    </traci_server>

    <random_number>
        <seed value="42"/>
    </random_number>

    <gui_only>
        <gui-settings-file value="Simulation\default-gui.xml"/>
    </gui_only>

</sumoConfiguration>
-->

<tripinfos xmlns:xsi="http://www.w3.org/2001/XMLSchema-instance" xsi:noNamespaceSchemaLocation="http://sumo.dlr.de/xsd/tripinfo_file.xsd">
    <tripinfo id="pt_bus_114:5.0" depart="0.00" departLane="-390841675_1" departPos="12.10" departPosLat="0.00" departSpeed="0.00" departDelay="0.00" arrival="215.00" arrivalLane="122574095_1" arrivalPos="35.58" arrivalPosLat="0.00" arrivalSpeed="5.12" duration="215.00" routeLength="1529.70" waitingTime="0.00" waitingCount="0" stopTime="68.00" timeLoss="27.74" rerouteNo="0" devices="tripinfo_pt_bus_114:5.0 routing_pt_bus_114:5.0 emissions_pt_bus_114:5.0" vType="pt_bus" speedFactor="1.00" vaporized="">
        <emissions CO_abs="498.345469" CO2_abs="1999057.462290" HC_abs="40.301706" PMx_abs="313.659106" NOx_abs="982.157739" fuel_abs="642429.613880" electricity_abs="0"/>
    </tripinfo>
    <tripinfo id="pt_light_rail_U13:0.0" depart="0.00" departLane="673171637_0" departPos="109.60" departPosLat="0.00" departSpeed="0.00" departDelay="0.00" arrival="249.00" arrivalLane="172027782#5_0" arrivalPos="1439.03" arrivalPosLat="0.00" arrivalSpeed="1.00" duration="249.00" routeLength="1862.23" waitingTime="0.00" waitingCount="0" stopTime="120.00" timeLoss="61.92" rerouteNo="0" devices="tripinfo_pt_light_rail_U13:0.0 routing_pt_light_rail_U13:0.0 emissions_pt_light_rail_U13:0.0" vType="pt_light_rail" speedFactor="1.00" vaporized="">
        <emissions CO_abs="0" CO2_abs="0" HC_abs="0" PMx_abs="0" NOx_abs="0" fuel_abs="0" electricity_abs="0"/>
    </tripinfo>
    <tripinfo id="pt_light_rail_U13:1.0" depart="0.00" departLane="68552415#0_0" departPos="109.60" departPosLat="0.00" departSpeed="0.00" departDelay="0.00" arrival="254.00" arrivalLane="172027783_0" arrivalPos="98.63" arrivalPosLat="0.00" arrivalSpeed="1.00" duration="254.00" routeLength="1860.56" waitingTime="0.00" waitingCount="0" stopTime="120.00" timeLoss="66.98" rerouteNo="0" devices="tripinfo_pt_light_rail_U13:1.0 routing_pt_light_rail_U13:1.0 emissions_pt_light_rail_U13:1.0" vType="pt_light_rail" speedFactor="1.00" vaporized="">
        <emissions CO_abs="0" CO2_abs="0" HC_abs="0" PMx_abs="0" NOx_abs="0" fuel_abs="0" electricity_abs="0"/>
    </tripinfo>
    <tripinfo id="pt_bus_61:1.0" depart="0.00" departLane="431444776#1_0" departPos="12.10" departPosLat="0.00" departSpeed="0.00" departDelay="0.00" arrival="276.00" arrivalLane="-676917368#0_1" arrivalPos="22.31" arrivalPosLat="0.00" arrivalSpeed="0.81" duration="276.00" routeLength="1030.97" waitingTime="37.00" waitingCount="3" stopTime="120.00" timeLoss="75.51" rerouteNo="0" devices="tripinfo_pt_bus_61:1.0 routing_pt_bus_61:1.0 emissions_pt_bus_61:1.0" vType="pt_bus" speedFactor="1.00" vaporized="">
        <emissions CO_abs="633.240391" CO2_abs="1948746.889990" HC_abs="45.688671" PMx_abs="404.707613" NOx_abs="1236.905712" fuel_abs="626265.420856" electricity_abs="0"/>
    </tripinfo>
    <tripinfo id="pt_train_RE_5:0.0" depart="0.00" departLane="156199094#3_0" departPos="135.10" departPosLat="0.00" departSpeed="0.00" departDelay="0.00" arrival="317.00" arrivalLane="48316096#2_0" arrivalPos="589.00" arrivalPosLat="0.00" arrivalSpeed="7.75" duration="317.00" routeLength="4125.58" waitingTime="0.00" waitingCount="0" stopTime="60.00" timeLoss="158.59" rerouteNo="0" devices="tripinfo_pt_train_RE_5:0.0 routing_pt_train_RE_5:0.0 emissions_pt_train_RE_5:0.0" vType="pt_train" speedFactor="1.00" vaporized="">
        <emissions CO_abs="11663.485655" CO2_abs="5896211.708190" HC_abs="2772.382452" PMx_abs="2314.427146" NOx_abs="82412.669696" fuel_abs="1855184.126634" electricity_abs="0"/>
    </tripinfo>
</tripinfos>
