<?xml version="1.0" encoding="UTF-8"?>

<!-- generated on 2025-06-12 13:17:18 by Eclipse SUMO sumo Version 1.19.0
<configuration xmlns:xsi="http://www.w3.org/2001/XMLSchema-instance" xsi:noNamespaceSchemaLocation="http://sumo.dlr.de/xsd/sumoConfiguration.xsd">

    <input>
        <net-file value="Simulation\crr.net.xml"/>
        <route-files value="Simulation\flows.rou.xml"/>
        <additional-files value="Simulation\osm_polygons.add.xml,Simulation\ basic.vType.xml,Simulation\ additional.xml,Simulation\ data.rou.xml"/>
    </input>

    <output>
        <output-prefix value="output."/>
        <emission-output value="emissions.xml"/>
        <summary-output value="Simulation\summary.xml"/>
        <person-summary-output value="Simulation\person.summary.xml"/>
        <tripinfo-output value="Simulation\tripinfo.xml"/>
        <tripinfo-output.write-unfinished value="false"/>
        <statistic-output value="Simulation\statistics.xml"/>
    </output>

    <processing>
        <lateral-resolution value="0.8"/>
        <ignore-junction-blocker value="60"/>
        <ignore-route-errors value="true"/>
        <collision.action value="teleport"/>
        <time-to-teleport value="300"/>
        <max-depart-delay value="900"/>
        <time-to-impatience value="120"/>
        <parking.maneuver value="true"/>
        <pedestrian.model value="striping"/>
        <pedestrian.striping.stripe-width value="0.55"/>
        <pedestrian.striping.dawdling value="0.2"/>
        <pedestrian.striping.jamtime value="60"/>
        <pedestrian.striping.jamtime.crossing value="10"/>
        <pedestrian.striping.reserve-oncoming value="0.25"/>
        <pedestrian.striping.reserve-oncoming.junctions value="0.34"/>
        <ride.stop-tolerance value="25"/>
    </processing>

    <routing>
        <routing-algorithm value="astar"/>
        <persontrip.walkfactor value="0.75"/>
        <persontrip.transfer.car-walk value="parkingAreas,allJunctions"/>
        <persontrip.transfer.taxi-walk value="parkingAreas,allJunctions"/>
        <persontrip.transfer.walk-taxi value="parkingAreas,allJunctions"/>
        <persontrip.taxi.waiting-time value="300"/>
        <device.rerouting.probability value="1"/>
        <device.rerouting.period value="300"/>
        <device.rerouting.pre-period value="300"/>
        <device.rerouting.threads value="64"/>
        <device.rerouting.bike-speeds value="true"/>
        <person-device.rerouting.probability value="1"/>
        <person-device.rerouting.period value="300"/>
    </routing>

    <report>
        <verbose value="true"/>
        <no-warnings value="true"/>
        <duration-log.disable value="false"/>
        <duration-log.statistics value="true"/>
        <no-step-log value="false"/>
        <step-log.period value="100"/>
    </report>

    <taxi_device>
        <device.taxi.dispatch-algorithm value="greedy"/>
        <device.taxi.dispatch-algorithm.output value="Simulation\taxi.dispatch.xml"/>
        <device.taxi.dispatch-period value="60"/>
        <device.taxi.idle-algorithm value="stop"/>
        <device.taxi.idle-algorithm.output value="Simulation\taxi.idle.xml"/>
    </taxi_device>

    <traci_server>
        <remote-port value="52254"/>
    </traci_server>

    <random_number>
        <seed value="42"/>
    </random_number>

    <gui_only>
        <gui-settings-file value="Simulation\default-gui.xml"/>
    </gui_only>

</configuration>
-->

<tripinfos xmlns:xsi="http://www.w3.org/2001/XMLSchema-instance" xsi:noNamespaceSchemaLocation="http://sumo.dlr.de/xsd/tripinfo_file.xsd">
    <tripinfo id="pt_bus_114:5.0" depart="0.00" departLane="-390841675_1" departPos="12.10" departPosLat="0.00" departSpeed="0.00" departDelay="0.00" arrival="214.00" arrivalLane="122574095_1" arrivalPos="35.58" arrivalPosLat="0.00" arrivalSpeed="4.51" duration="214.00" routeLength="1529.70" waitingTime="0.00" waitingCount="0" stopTime="68.00" timeLoss="27.18" rerouteNo="0" devices="tripinfo_pt_bus_114:5.0 routing_pt_bus_114:5.0 emissions_pt_bus_114:5.0" vType="pt_bus" speedFactor="1.00" vaporized="">
        <emissions CO_abs="4677.146023" CO2_abs="2311691.824939" HC_abs="1069.963328" PMx_abs="490.412787" NOx_abs="19556.634997" fuel_abs="731428.736443" electricity_abs="0"/>
    </tripinfo>
</tripinfos>
