<?xml version="1.0" encoding="UTF-8"?>

<!-- generated on 2023-05-18 14:38:05 by Eclipse SUMO sumo Version 1.16.0
<configuration xmlns:xsi="http://www.w3.org/2001/XMLSchema-instance" xsi:noNamespaceSchemaLocation="http://sumo.dlr.de/xsd/sumoConfiguration.xsd">

    <input>
        <net-file value="C:\Users\sader\Sumo\2023-05-18-14-37-49\osm.net.xml.gz"/>
        <route-files value="C:\Users\sader\Sumo\2023-05-18-14-37-49\trips.trips.xml"/>
        <additional-files value="C:\Users\sader\Sumo\2023-05-18-14-37-49\osm_stops.add.xml"/>
    </input>

    <output>
        <vehroute-output value="C:\Users\sader\Sumo\2023-05-18-14-37-49\vehroutes.xml"/>
        <stop-output value="C:\Users\sader\Sumo\2023-05-18-14-37-49\stopinfos.xml"/>
    </output>

    <time>
        <begin value="0.0"/>
    </time>

    <processing>
        <ignore-route-errors value="true"/>
    </processing>

    <routing>
        <device.rerouting.adaptation-interval value="0"/>
    </routing>

    <report>
        <aggregate-warnings value="5"/>
        <error-log value="C:\Users\sader\Sumo\2023-05-18-14-37-49\trips.trips.xml.errorlog"/>
        <no-step-log value="true"/>
    </report>

</configuration>
-->

<routes xmlns:xsi="http://www.w3.org/2001/XMLSchema-instance" xsi:noNamespaceSchemaLocation="http://sumo.dlr.de/xsd/routes_file.xsd">
    <vehicle id="6_bus_138:0" type="pt_bus" depart="47.00" departLane="0" arrival="78.00">
        <route edges="122124925#0"/>
        <stop busStop="764607112" duration="30.00"/>
    </vehicle>

    <vehicle id="12_light_rail_U8:1" type="pt_light_rail" depart="98.00" departLane="0" arrival="216.00">
        <route edges="26946517#0"/>
        <stop busStop="295255894" duration="30.00"/>
        <stop busStop="295255933" duration="30.00"/>
    </vehicle>

    <vehicle id="11_light_rail_U8:0" type="pt_light_rail" depart="93.00" departLane="0" arrival="228.00">
        <route edges="12815133"/>
        <stop busStop="270196725" duration="30.00"/>
        <stop busStop="270599198" duration="30.00"/>
    </vehicle>

    <vehicle id="22_light_rail_U7:1" type="pt_light_rail" depart="139.00" departLane="0" arrival="256.00">
        <route edges="26946517#0"/>
        <stop busStop="295255894" duration="30.00"/>
        <stop busStop="295255933" duration="30.00"/>
    </vehicle>

    <vehicle id="21_light_rail_U7:0" type="pt_light_rail" depart="137.00" departLane="0" arrival="276.00">
        <route edges="12815133"/>
        <stop busStop="270196725" duration="30.00"/>
        <stop busStop="270599198" duration="30.00"/>
    </vehicle>

    <vehicle id="14_bus_121:0" type="pt_bus" depart="119.00" departLane="0" arrival="337.00">
        <route edges="-392589607#0 -27531049#5 -27531049#4 -27531049#3 -27531049#2 -27531049#1 44459823#0 44459823#1 44459823#2 207083330 -44459774#2 -44459774#1 -44459774#0"/>
        <stop busStop="-245017149" duration="30.00"/>
        <stop busStop="-3883265541" duration="30.00"/>
    </vehicle>

    <vehicle id="51_bus_112:2" type="pt_bus" depart="383.00" departLane="0" arrival="414.00">
        <route edges="122124925#0"/>
        <stop busStop="764607112" duration="30.00"/>
    </vehicle>

    <vehicle id="13_bus_119:0" type="pt_bus" depart="102.00" departLane="0" arrival="566.00">
        <route edges="268558823#1 -146911733 -468914851 4811517 345748663 26738365#0 26738365#1 265461450 423481774#1 220150010 10492736 345736590 345736580 180667064#0 345736584 265461444#0 692610294 1157387458 345736587#0 345736587#1 30998717#0 11335846#1 926867325 345736604 926867324 265461454 926867322 23182939 265450242 345736606 686955221 926867319 345736600 345736602 926867316 345736605 926867315 1079724463 926867314 30998715 30998714 211686719 11336059 156261679#0 156261679#1 156261680 255241186 697552586 -926867310 -255241187 -1165983434#1 -1165983434#0 -755497921"/>
        <stop busStop="3566577206" duration="30.00"/>
        <stop busStop="3933810892" duration="30.00"/>
        <stop busStop="2711169196" duration="30.00"/>
    </vehicle>

    <vehicle id="2_train_RE_5:0" type="pt_train" depart="15.00" departLane="0" arrival="571.00">
        <route edges="248760538#0 248760538#1 248760538#2 248760538#3 248760538#4 180784434#1 156199094#1 156199094#2 156199094#3 102848475#1 102848507#0 102848507#1 460942121#0 460942121#1 25423242#1 85959749#1 68906765 70395557#1 48316096#1 48316096#2"/>
        <stop busStop="2661523902" duration="30.00"/>
        <stop busStop="3068257018" duration="30.00"/>
    </vehicle>

    <vehicle id="64_bus_121:1" type="pt_bus" depart="483.00" departLane="0" arrival="722.00">
        <route edges="44459774#0 44459774#1 44459774#2 384972992 44459767 -44459823#2 -44459823#1 -44459823#0 27531049#0 27531049#2 27531049#3 27531049#4 27531049#5 27531049#6 392589607#1 392589607#3"/>
        <stop busStop="6537655136" duration="30.00"/>
        <stop busStop="3883265532" duration="30.00"/>
    </vehicle>

    <vehicle id="44_bus_109:1" type="pt_bus" depart="334.00" departLane="1" arrival="798.00">
        <route edges="-24508781#1 -24508781#0 -1035471358 -688229200 -1035471357#1 -1035471357#0 -8026844#3 -8026844#1 -8026844#0 -387155261 -387296028#2 -387296028#1 -387296028#0 -1035471354 -794514058 -788313637 -956612326 -1035471353 -199665487#1 -199665487#0 -592426952 766727735 159822900 1168323015#1 1168323014 442274142 94166210#0 94166210#1 386832700 386832701#0 386832701#1 442274134 386832702 -378237356 -23316466 442274132 442274138 386832703#0 386832703#1 135078201 -283413806 -316354387#0 156260258 -386500268#0"/>
        <stop busStop="-3904477592" duration="30.00"/>
    </vehicle>

    <vehicle id="43_bus_109:0" type="pt_bus" depart="331.00" departLane="0" arrival="810.00">
        <route edges="-386500268#0 316354387#0 316354387#1 -135078201 -386832703#1 -386832703#0 -442274138 -442274132 -169220423 378237356 442274136 442274140 29138343#0 29138343#1 488705428#0 488705428#1 488705428#2 -442274142 -1168323014 -1168323015#1 -1168323015#0 -410089906 592426952 199665487#0 199665487#1 1035471353 956612326 23316365 794514058 1035471354 387296028#0 387296028#1 387296028#2 387155261 8026844#0 8026844#1 8026844#3 1035471357#0 1035471357#1 688229200 1035471358 24508781#0 24508781#1"/>
        <stop busStop="-6501810816" duration="30.00"/>
        <stop busStop="-2648044989" duration="30.00"/>
    </vehicle>

    <vehicle id="40_bus_105:1" type="pt_bus" depart="303.00" departLane="0" arrival="833.00">
        <route edges="-392441930 -386500268#0 316354387#0 316354387#1 -135078201 -386832703#1 -386832703#0 -442274138 -442274132 -169220423 378237356 442274136 442274140 29138343#0 29138343#1 488705428#0 488705428#1 488705428#2 -442274142 -1168323014 -1168323015#1 -1168323015#0 -410089906 592426952 410089904 24608218 60233475 42229181 202223882 169127822#0 169127822#1 -24436948 -1030803965#1 9514889#0 9514889#1 9514889#2 385405396 675674219 675674221"/>
        <stop busStop="-3566577209" duration="30.00"/>
        <stop busStop="-3872841444" duration="30.00"/>
    </vehicle>

    <vehicle id="39_bus_105:0" type="pt_bus" depart="275.00" departLane="0" arrival="835.00">
        <route edges="675674221 675674220#1 -385405396 16361896 -16361899#3 -16361899#2 -16361899#0 537710741#1 537710741#2 537710741#3 537710741#4 387296020 169127813#0 169127813#2 169127813#3 169127813#4 169127813#5 787951054 8812305#1 386831075 386831074 694012903 4807779#0 4807779#1 694012899#0 694012899#1 38361911#0 4807781#0 4807781#1 4807784#0 4807784#1 661603871 661603873#0 661603873#1 10419532#1 156260261 138203611#0 138203611#1 163737798 1157387449#0 1157387449#1 1157387455 1157387457 31787956 911970184 911970185 939228251 178668745 -392441930"/>
        <stop busStop="6327610134" duration="30.00"/>
    </vehicle>

    <vehicle id="18_bus_122:1" type="pt_bus" depart="132.00" departLane="0" arrival="874.00">
        <route edges="-231875714 163737793#0 163737793#1 -231875715#2 -231875715#0 -448036753 -1086199879#1 -1086199879#0 -37721059 -23100738#1 -23100738#0 -697552595#1 -448974989 -1062836785#1 -23100755#1 -23100755#0 22910685#0 22910685#1 163737796 943526836 653561652 264621638#1 -448036755#1 -448036755#0 -432904401 -23032776#0 30998716#0 11335855#0 11335855#1 265461445#0 169097422 265461443 345736597 345736596 423481788#0 423481788#1 220150011#0 220150011#1 423481777 265461451 23205595 350147738 10492734#0 10492734#1 17096026 156260261 138203611#0 138203611#1 163737798 1157387449#0 1157387449#1 1157387455 1157387457 31787956 911970184 911970185 939228251 178668745 -392441930"/>
        <stop busStop="-6262815029" duration="30.00"/>
    </vehicle>

    <vehicle id="7_bus_108:0" type="pt_bus" depart="52.00" departLane="0" arrival="880.00">
        <route edges="-386500268#0 316354387#0 316354387#1 -135078201 -386832703#1 -386832703#0 -442274138 -442274132 -169220423 378237356 442274136 442274140 29138343#0 29138343#1 488705428#0 488705428#1 488705428#2 29138344 202572138 -23320738#2 -23320738#1 -23320738#0 -29139497#2 -29139497#0 694012897#0 694012897#1 29139496 386831073 694012900#0 694012900#1 694012881 694012904 -386831074 -386831075 -8812305#1 -8812305#0 -785623014 -787951055 -385405407#2 -385405407#1 -385405407#0 -787951056#0 -785623013#1 -785623013#0 -385405409#1 -761051959#1 -281956706 281956707 387212676 387212683 25072810#0 387212679#0 306683410#0 306683410#1 306683410#2 306683410#3 306683410#4 387212679#4 387212679#5 37181832#0 37181832#1 37181832#2 37181832#3 -23724224#0 -23724230#3 -23724230#2 -23724230#1 -23724230#0 -412792772 -391056748#3 -391056748#1 -391056748#0 -391056747 -391056746#4 -391056746#2 -391056746#1 -391056746#0 -391056745 -391056744 -31133710 -181647035 4590693#0 4590693#1 386500265#0 386500265#1 -274543260#3 -274543260#2 -275174267#1 -386500264#16 -386500264#13 -386500264#10"/>
        <stop busStop="-3566577210" duration="30.00"/>
        <stop busStop="-3872841444" duration="30.00"/>
    </vehicle>

    <vehicle id="37_bus_104:2" type="pt_bus" depart="237.00" departLane="0" arrival="913.00">
        <route edges="44459774#0 44459774#1 44459774#2 384972992 44459767 -44459823#2 -44459823#1 -44459823#0 27531049#0 27531049#2 27531049#3 27531049#4 27531049#5 27531049#6 392589607#1 392589607#3 -25752783#2 -25752783#1 -25752783#0 -474485724 27396983 390216941 390216942 474485723#0 474485723#1 474485722 24008852#0 24008852#2 24008852#3 474485721 24008850#0 474485720 24302935 -390216943 -24511285#2 -24511285#1 189364993#0 -178668743 -202630135 -387401256#1 -290577631 163737798 1157387449#0 1157387449#1 1157387455 1157387457 31787956 911970184 911970185 939228251 178668745 -392441930 386500268#1"/>
        <stop busStop="6537655136" duration="30.00"/>
    </vehicle>

    <vehicle id="38_bus_104:3" type="pt_bus" depart="253.00" departLane="0" arrival="918.00">
        <route edges="44459774#0 44459774#1 44459774#2 384972992 44459767 -44459823#2 -44459823#1 -44459823#0 27531049#0 27531049#2 27531049#3 27531049#4 27531049#5 27531049#6 392589607#1 392589607#3 -25752783#2 -25752783#1 -25752783#0 -474485724 27396983 390216941 390216942 474485723#0 474485723#1 474485722 24008852#0 24008852#2 24008852#3 474485721 24008850#0 474485720 24302935 -390216943 -24511285#2 -24511285#1 189364993#0 -178668743 -202630135 -387401256#1 -290577631 163737798 1157387449#0 1157387449#1 1157387455 1157387457 31787956 911970184 911970185 939228251 178668745 -392441930 386500268#1"/>
        <stop busStop="6537655136" duration="30.00"/>
        <stop busStop="3883265532" duration="30.00"/>
    </vehicle>

    <vehicle id="25_bus_102:2" type="pt_bus" depart="160.00" departLane="0" arrival="954.00">
        <route edges="899604572#2 1088871993#0 1088871993#1 448974993#0 448974993#1 169095987 261543560#0 261543560#1 176337397 261543547#0 176337392 261543546 24994689 182054708#1 261543529 261543528 243216783 243216837 243216829 613392718 345712781 180667073 386827126#0 386827126#1 423481788#0 423481788#1 220150011#0 220150011#1 423481777 265461447 693946729#1 -138203748#1 -138203748#0 -459231516 -180784446#1 -180784446#0 -180784453 -474485750#2 -474485750#1 -474485750#0 -474485753 -474485743 -474485745#2 -474485745#1 -474485745#0 -474485742 -182058678#2 -182058678#1 -182058678#0 -474485738 -107757511 -474485739 -474485740 -474485741#1 -474485741#0 183049617 921020467#0 921020467#2 921020466#0 921020465#0 921020465#1 183049957#0 183049957#1 331752492#1 331752492#2 331752494 1169441387 23999291#0 23999291#1 23999291#2 23999290 4590682#0 4590682#1 4590682#2 38279874 38361905#0 38361905#1"/>
        <stop busStop="3872841448" duration="30.00"/>
    </vehicle>

    <vehicle id="46_bus_110:1" type="pt_bus" depart="353.00" departLane="1" arrival="956.00">
        <route edges="-560583353#2 -560583353#1 -560583354 -538358998#2 -538358998#1 -538358998#0 -12099349 387155267 -538358997#1 -538358997#0 -538358996#4 -538358996#3 -538358996#2 -169127787#1 -169127787#0 -34424782#2 -34424782#1 23528255#0 23528255#1 -552812219 -12099342#3 -12099342#1 -12099342#0 -387155256 -410089903#1 -410089903#0 -654570576#1 -654570576#0 -387155255#1 -34424783#2 -34424783#1 -34424783#0 -26734306#1 -26734306#0 -387296028#2 -387296028#1 -387296028#0 -1035471354 -794514058 -788313637 -956612326 -1035471353 -199665487#1 -199665487#0 -592426952 766727735 159822900 1168323015#1 1168323014 442274142 94166210#0 94166210#1 386832700 386832701#0 386832701#1 442274134 386832702 -378237356 -23316466 442274132 442274138 386832703#0 386832703#1 135078201 -283413806 -316354387#0 156260258"/>
        <stop busStop="-109597336" duration="30.00"/>
    </vehicle>

    <vehicle id="26_bus_102:3" type="pt_bus" depart="166.00" departLane="0" arrival="958.00">
        <route edges="899604572#2 1088871993#0 1088871993#1 448974993#0 448974993#1 169095987 261543560#0 261543560#1 176337397 261543547#0 176337392 261543546 24994689 182054708#1 261543529 261543528 243216783 243216837 243216829 613392718 345712781 180667073 386827126#0 386827126#1 423481788#0 423481788#1 220150011#0 220150011#1 423481777 265461447 693946729#1 -138203748#1 -138203748#0 -459231516 -180784446#1 -180784446#0 -180784453 -474485750#2 -474485750#1 -474485750#0 -474485753 -474485743 -474485745#2 -474485745#1 -474485745#0 -474485742 -182058678#2 -182058678#1 -182058678#0 -474485738 -107757511 -474485739 -474485740 -474485741#1 -474485741#0 183049617 921020467#0 921020467#2 921020466#0 921020465#0 921020465#1 183049957#0 183049957#1 331752492#1 331752492#2 331752494 1169441387 23999291#0 23999291#1 23999291#2 23999290 4590682#0 4590682#1 4590682#2 38279874 38361905#0 38361905#1"/>
        <stop busStop="3872841448" duration="30.00"/>
    </vehicle>

    <vehicle id="10_bus_122:0" type="pt_bus" depart="60.00" departLane="0" arrival="989.00">
        <route edges="-392441930 -386500268#0 316354387#0 316354387#1 -135078201 -386832703#1 -386832703#0 -442274138 -442274132 -169220423 378237356 -378237356 -23316466 442274132 442274138 386832703#0 386832703#1 135078201 -283413806 -316354387#0 -105914659#1 -675777502 -316354392 -146911733 -468914851 4811517 345748663 26738365#0 26738365#1 265461450 423481774#1 220150010 10492736 345736590 345736580 180667064#0 345736584 265461444#0 692610294 1157387458 345736587#0 345736587#1 30998717#0 -30998716#1 23032776#0 432904401 448036755#0 448036755#1 -264621638#1 -264621638#0 -943526837 -163737796 23094824#0 23094824#1 23100755#0 23100755#1 1062836785#1 448974989 697552595#1 23100738#0 23100738#1 37721059 1086199879#0 1086199879#1 448036753 231875715#0 231875715#1 -163737793#1 -163737793#0 231875714"/>
        <stop busStop="-3566577209" duration="30.00"/>
        <stop busStop="-3872841444" duration="30.00"/>
    </vehicle>

    <vehicle id="5_train_S1:0" type="pt_train" depart="27.00" departLane="0" arrival="1029.00">
        <route edges="292876200#0 292876200#1 68908209#0 68908209#1 292876202#0 292876202#1 454381995 102807136#1 102807136#2 102848495#1 102848495#2 102848495#3 102848495#4 454381994#1 292876199#0 292876199#1 292876199#2 292876199#3 292876199#4 180784454#1 180784454#2 180784454#3"/>
        <stop busStop="263337116" duration="30.00"/>
        <stop busStop="263337125" duration="30.00"/>
        <stop busStop="1187584571" duration="30.00"/>
        <stop busStop="1187534664" duration="30.00"/>
        <stop busStop="3082151227" duration="30.00"/>
        <stop busStop="1187477995" duration="30.00"/>
    </vehicle>

    <vehicle id="35_bus_104:0" type="pt_bus" depart="227.00" departLane="0" arrival="1058.00">
        <route edges="386500268#1 -350217704#2 -350217704#1 -350217704#0 109592895 17097227 290577629#0 290577631 387401256#1 178668744 178668743 -189364993#0 24511285#1 24511285#2 390216943 -24302935 -474485720 -24008850#0 -474485721 -24008852#3 -24008852#2 -24008852#0 -474485722 -474485723#1 -474485723#0 -390216942 -390216941 -27396983 474485725 25752783#0 25752783#1 25752783#2 -392589607#3 -392589607#1 -392589607#0 -27531049#5 -27531049#4 -27531049#3 -27531049#2 -27531049#1 44459823#0 44459823#1 44459823#2 207083330 -44459774#2 -44459774#1 -44459774#0"/>
        <stop busStop="3566577208" duration="30.00"/>
        <stop busStop="-6515317595" duration="30.00"/>
    </vehicle>

    <vehicle id="9_bus_131:0" type="pt_bus" depart="58.00" departLane="1" arrival="1074.00">
        <route edges="675777502 -350217704#2 -350217704#1 -350217704#0 109592895 17097227 290577629#0 1157387454#0 1157387454#1 138203609#0 138203610 387155262 156260255#0 156260255#1 156260255#2 156260255#3 138203607 4807840 23205593#0 26738365#0 26738365#1 265461450 423481774#1 220150010 10492736 345736590 345736580 180667064#0 345736584 265461444#0 692610294 1157387458 345736587#0 345736587#1 30998717#0 -30998716#1 23032776#0 432904401 448036755#0 448036755#1 -264621638#1 -264621638#0 -943526837 -163737796 23094824#0 23094824#1 23100755#0 23100755#1 1062836785#1 448974989 697552595#1 23100738#0 23100738#1 37721059 1086199879#0 1086199879#1 448036753 231875715#0 231875715#1 387401267#0 387401267#1 387401267#3 387401267#4 387401267#5 387401267#6 387401267#7 387401267#8 387401267#9 387401267#10 387401267#11 387401267#12 432904427#0 432904427#1 432904427#2 432904427#3 432904427#4 432904427#5 158355468#0 158355468#1 158355468#2 158355468#3 158355468#4 158355468#5 158355468#6 158355468#7 380001159 -23285074#2 -23285074#1 -23285074#0"/>
        <stop busStop="3224629436" duration="30.00"/>
        <stop busStop="-3872841443" duration="30.00"/>
    </vehicle>

    <vehicle id="28_bus_102:5" type="pt_bus" depart="173.00" departLane="0" arrival="1079.00">
        <route edges="899604572#2 1088871993#0 1088871993#1 448974993#0 448974993#1 169095987 261543560#0 261543560#1 176337397 261543547#0 176337392 261543546 24994689 182054708#1 261543529 261543528 243216783 243216837 243216829 613392718 345712781 180667073 386827126#0 386827126#1 423481788#0 423481788#1 220150011#0 220150011#1 423481777 265461447 693946729#1 -138203748#1 -138203748#0 -459231516 -180784446#1 -180784446#0 -180784453 -474485750#2 -474485750#1 -474485750#0 -474485753 -474485743 -474485745#2 -474485745#1 -474485745#0 -474485742 -182058678#2 -182058678#1 -182058678#0 -474485738 -107757511 -474485739 -474485740 -474485741#1 -474485741#0 183049617 921020467#0 921020467#2 921020466#0 921020465#0 921020465#1 183049957#0 183049957#1 331752492#1 331752492#2 331752494 1169441387 23999291#0 23999291#1 23999291#2 23999290 4590682#0 4590682#1 4590682#2 38279874 38361905#0 38361905#1"/>
        <stop busStop="3872841448" duration="30.00"/>
    </vehicle>

    <vehicle id="68_bus_132:2" type="pt_bus" depart="505.00" departLane="1" arrival="1079.00">
        <route edges="-560583353#2 -560583353#1 -560583354 -538358998#2 -538358998#1 -538358998#0 -12099349 387155267 12098783 387155266 12098881#0 12098881#1 12098881#2 12098881#3 12098881#4 12098881#5 12098881#6 12098881#7 12098881#8 205275738#0 205275738#1 202499345#0 202499345#1 387155265 202499353#0 202499353#1 555758425#0 202499351#0 202555478#0 202555478#1 202555475#0 202555475#1 202555475#2 202555475#3 202555475#4 202555475#5 202555475#6 202555475#7 202555475#8 202555475#9 202555475#10 202555475#11 186037699#0 385405402 787900923 436153519 186037710 -281921554 -281956711 -281956710#1 -281956702#1 -281966910#2 -281966910#1 -281966910#0 -993217766 -281956697 -281966915#4 -281966915#3 -281956703 -281966912 -998175513 -281956698#0 -169098294#3 -169098294#1 -281956700#4 -281956700#2 -281956705#6 -281956705#3 -23725458#5 -23725458#4 -23725458#3 -23725458#2 37177744#1 37177744#2 37177744#3 -283020995 283020996#0 283020996#1 25973409#2 -283020993#4 -283020993#3 -283020993#2 -283020993#1 -283020993#0 -387401249 -391001058 -23059671#7 -23059671#6 -23059671#5 -23059671#4 -23059671#3 -23059671#2 -23059671#0"/>
        <stop busStop="-109597336" duration="30.00"/>
    </vehicle>

    <vehicle id="0_bus_114:0" type="pt_bus" depart="3.00" departLane="0" arrival="1097.00">
        <route edges="384972991#1 -350217704#3 -350217704#2 -350217704#1 -350217704#0 109592895 17097227 290577629#0 290577631 387401256#1 178668744 178668743 54883018#1 54883018#2 54883018#3 4807837#0 4807837#1 4807837#2 275526211 -4811453#7 -4811453#6 -4811453#5 -4811453#4 -4811453#3 -4811453#2 -4811453#1 -273990571#6 -273990571#5 -273990571#4 -273990571#3 -273990571#2 -273990571#1 -273990571#0 -273990570 -183419042#11 -183419042#10 -183419042#9 -183419042#8 -183419042#7 -183419042#4 -183419042#3 -183419042#2 -183419042#1 -183419042#0 26249185#0 26249185#1 26249185#3 183049934 1164287131#0 1164287131#1 183049933#0 38361908#1 758088376#0 758088377#0 758088377#1 758088377#2 22889927#0 22889927#2 22889927#3 22889927#4 387296014#0 387296014#1 696225646#1 696225646#2 696225646#3 130569446 758088378#0 758088378#1 37181834#0 37181834#1 37181834#2 37181834#3 57852607#0 57852607#1 57852607#2 57852607#3"/>
        <stop busStop="2739052081" duration="30.00"/>
        <stop busStop="-1254192526" duration="30.00"/>
        <stop busStop="1219607572" duration="30.00"/>
        <stop busStop="2626499005" duration="30.00"/>
    </vehicle>

    <vehicle id="56_bus_113:3" type="pt_bus" depart="406.00" departLane="0" arrival="1113.00">
        <route edges="-386236344#1 -386236344#0 -220797339 -24782849#0 -385259858 4813442 204724401 386239008 204724398 24447759#0 24447759#1 390216938 -441764367#0 -474485726 314609084 390216942 474485723#0 474485723#1 474485722 24008852#0 24008852#2 24008852#3 474485721 24008850#0 474485720 24302935 -390216943 -24511285#2 -24511285#1 189364993#0 -178668743 -202630135 -387401256#1 -290577631 163737798 1157387449#0 1157387449#1 1157387455 1157387457 31787956 911970184 911970185 939228251 178668745 146911733 316354392"/>
        <stop busStop="3933810878" duration="30.00"/>
    </vehicle>

    <vehicle id="19_train_S1:1" type="pt_train" depart="133.00" departLane="0" arrival="1151.00">
        <route edges="123444522#0 123444522#1 123444522#2 123444522#3 123444522#4 123444522#5 180784432#1 180784439#1 180784439#2 180784439#3 180784439#4 180784439#5 180784439#6 180784439#7 445470518 156199093#1 102841941 -102848495#2 -102848495#1 102841943 156199093#3 460942119#0 460942119#1 286146962#1 286146962#2 284659686#1 85959750#1 68908219#0 68908219#1 23163786#0 23163786#1 23163786#2 23163786#3 23163786#4"/>
        <stop busStop="3068304222" duration="30.00"/>
        <stop busStop="3082162048" duration="30.00"/>
        <stop busStop="263337147" duration="30.00"/>
        <stop busStop="263337141" duration="30.00"/>
        <stop busStop="3222963807" duration="30.00"/>
        <stop busStop="3068257006" duration="30.00"/>
    </vehicle>

    <vehicle id="54_bus_113:1" type="pt_bus" depart="427.00" departLane="1" arrival="1191.00">
        <route edges="675777502 -350217704#3 -350217704#2 -350217704#1 -350217704#0 109592895 17097227 290577629#0 290577631 387401256#1 178668744 178668743 -189364993#0 24511285#1 24511285#2 390216943 -24302935 -474485720 -24008850#0 -474485721 -24008852#3 -24008852#2 -24008852#0 -474485722 -474485723#1 -474485723#0 -390216942 -390216941 22793624 26249197 441764367#0 -390216938 -24447759#1 -24447759#0 -204724398 -386239008 -204724401 -4813442 385259858 24782849#0 220797339 386236344#0 386236344#1"/>
        <stop busStop="3224629436" duration="30.00"/>
        <stop busStop="-6515317538" duration="30.00"/>
    </vehicle>

    <vehicle id="32_bus_103:3" type="pt_bus" depart="204.00" departLane="1" arrival="1214.00">
        <route edges="10424183 432904514 432904515 4066943#0 4066943#2 4066943#3 4066943#5 4066943#6 23119545 23108338 448974992#0 448974992#1 448974992#2 1088247375 118976653 167641315#0 167641315#1 167641315#2 169095987 261543560#0 261543560#1 176337397 261543547#0 176337392 261543546 24994689 182054708#1 261543529 261543528 243216783 243216837 243216829 613392718 345712781 180667073 386827126#0 386827126#1 423481788#0 423481788#1 220150011#0 220150011#1 423481777 265461447 693946729#1 -138203748#1 -138203748#0 -459231516 -180784446#1 -180784446#0 -180784453 -474485750#2 -474485750#1 -474485750#0 -474485753 -474485743 -474485745#2 -474485745#1 -474485745#0 -474485742 -182058678#2 -182058678#1 -182058678#0 -474485738 -107757511 -474485739 -474485740 -474485741#1 -474485741#0 183049617 921020467#0 921020467#2 921020466#0 921020465#0 921020465#1 183049957#0 183049957#1 331752492#1 331752492#2 331752494 1169441387 23999291#0 23999291#1 23999291#2 23999290 4590682#0 4590682#1 4590682#2 38279874 38361905#0 38361905#1"/>
        <stop busStop="1786518020" duration="30.00"/>
    </vehicle>

    <vehicle id="33_bus_103:4" type="pt_bus" depart="218.00" departLane="1" arrival="1217.00">
        <route edges="10424183 432904514 432904515 4066943#0 4066943#2 4066943#3 4066943#5 4066943#6 23119545 23108338 448974992#0 448974992#1 448974992#2 1088247375 118976653 167641315#0 167641315#1 167641315#2 169095987 261543560#0 261543560#1 176337397 261543547#0 176337392 261543546 24994689 182054708#1 261543529 261543528 243216783 243216837 243216829 613392718 345712781 180667073 386827126#0 386827126#1 423481788#0 423481788#1 220150011#0 220150011#1 423481777 265461447 693946729#1 -138203748#1 -138203748#0 -459231516 -180784446#1 -180784446#0 -180784453 -474485750#2 -474485750#1 -474485750#0 -474485753 -474485743 -474485745#2 -474485745#1 -474485745#0 -474485742 -182058678#2 -182058678#1 -182058678#0 -474485738 -107757511 -474485739 -474485740 -474485741#1 -474485741#0 183049617 921020467#0 921020467#2 921020466#0 921020465#0 921020465#1 183049957#0 183049957#1 331752492#1 331752492#2 331752494 1169441387 23999291#0 23999291#1 23999291#2 23999290 4590682#0 4590682#1 4590682#2 38279874 38361905#0 38361905#1"/>
        <stop busStop="1786518020" duration="30.00"/>
    </vehicle>

    <vehicle id="67_bus_132:1" type="pt_bus" depart="497.00" departLane="1" arrival="1223.00">
        <route edges="-24508781#1 -24508781#0 -1035471358 -688229200 -1035471357#1 -1035471357#0 -8026844#3 -8026844#1 -8026844#0 -387155261 26734306#0 26734306#1 26734306#2 34424783#1 34424783#2 387155255#1 654570576#0 654570576#1 410089903#0 410089903#1 387155256 12099342#0 12099342#1 12099342#2 552812219 387155254#0 387155254#1 34424782#0 34424782#2 169127787#0 169127787#1 538358996#2 538358996#3 538358996#4 538358997#0 538358997#1 12098783 387155266 12098881#0 12098881#1 12098881#2 12098881#3 12098881#4 12098881#5 12098881#6 12098881#7 12098881#8 205275738#0 205275738#1 202499345#0 202499345#1 387155265 202499353#0 202499353#1 555758425#0 202499351#0 202555478#0 202555478#1 202555475#0 202555475#1 202555475#2 202555475#3 202555475#4 202555475#5 202555475#6 202555475#7 202555475#8 202555475#9 202555475#10 202555475#11 186037699#0 385405402 787900923 436153519 186037710 -281921554 -281956711 -281956710#1 -281956702#1 -281966910#2 -281966910#1 -281966910#0 -993217766 -281956697 -281966915#4 -281966915#3 -281956703 -281966912 -998175513 -281956698#0 -169098294#3 -169098294#1 -281956700#4 -281956700#2 -281956705#6 -281956705#3 -23725458#5 -23725458#4 -23725458#3 -23725458#2 37177744#1 37177744#2 37177744#3 -283020995 283020996#0 283020996#1 25973409#2 -283020993#4 -283020993#3 -283020993#2 -283020993#1 -283020993#0 -387401249 -391001058 -23059671#7 -23059671#6 -23059671#5 -23059671#4 -23059671#3 -23059671#2 -23059671#0"/>
        <stop busStop="-3904477592" duration="30.00"/>
    </vehicle>

    <vehicle id="17_trolleybus_101:1" type="pt_trolleybus" depart="131.00" departLane="1" arrival="1224.00">
        <route edges="5783243#0 154230476 570009376#0 570009376#1 570009371#0 974776882 974776881#1 974776881#2 974776881#3 387401262#0 387401262#1 387401262#3 387401262#4 387401262#5 591252083#0 591252082 896339462 273169649#0 273169649#1 146908203#0 146908203#1 146908203#2 146908203#3 383983726 661600434#0 661600434#1 121495762 661600433#0 146908199#1 146908199#2 -387401261 -378237359#6 -378237359#5 -378237359#4 -378237359#3 -378237359#2 -378237359#1 -378237359#0 -692537991#0 -692537992 -378237361 -135078202#1 378237373#1 378237374#0 -378237372#1 -4807752#0 -937763472 -823062060 -990451065 -400653105 -400653106 -675777502 -316354392 -146911733 -468914851 -939228251 -911970185 -911970184 -31787956 -1157387457 182055214 693946729#0 693946729#1 -138203748#1 -138203748#0 -459231516 -180784446#1 -180784446#0 -180784453 -474485750#2 -474485750#1 -474485750#0 -474485753 -474485743 -474485745#2 -474485745#1 -474485745#0 -474485742 -182058678#2 -182058678#1 -182058678#0 -474485738 -107757511 -474485739 -474485740 -474485741#1 -474485741#0 183049617 921020467#0 921020467#2 921020466#0 921020465#0 921020465#1 921020464#0 921020464#1 183049934 1164287131#0 1164287131#1 183049933#0 38361908#1 758088376#0 758088377#0 758088377#1 758088377#2 22889927#0 22889927#2 22889927#3 22889927#4 387296014#0 387296014#1 696225646#1 696225646#2 696225646#3 130569446 -758088379#0 -1162834479#1 -1162834479#0 384338153#0 384338153#1 384338154#0 384338154#1 384338154#2"/>
        <stop busStop="3876394653" duration="30.00"/>
    </vehicle>
