<?xml version="1.0" encoding="UTF-8"?>

<!-- generated on 2023-11-28 15:27:49.801877 by gtfs2fcd.py v1_19_0+0000-baa66a0f364
<configuration>
    <gtfs value="gtfs_realtime.zip"/>
    <date value="20231009"/>
    <network value="osm.net.xml.gz"/>
</configuration>
-->

<fcd-export>
    <timestep time="343320"><vehicle id="('de:vvs:30061_::1-T0-10',)" x="9.26584953401663" y="48.7657390330152" until="0" name="Bergstaffelstraße" fareZone="" fareSymbol="" startFare="" speed="20"/></timestep>
    <timestep time="343380"><vehicle id="('de:vvs:30061_::1-T0-10',)" x="9.26895773675196" y="48.7619190264031" until="60" name="Obertürkheim Bf" fareZone="" fareSymbol="" startFare="" speed="20"/></timestep>
    <timestep time="359340"><vehicle id="('de:vvs:30061_::1-T0-113',)" x="9.26922919091466" y="48.7618104823069" until="0" name="Obertürkheim Bf" fareZone="" fareSymbol="" startFare="" speed="20"/></timestep>
    <timestep time="359340"><vehicle id="('de:vvs:30061_::1-T0-113',)" x="9.26838978241194" y="48.7625408293683" until="60" name="Obertürkh. Bf (Göpp.Str.)" fareZone="" fareSymbol="" startFare="" speed="20"/></timestep>
    <timestep time="359340"><vehicle id="('de:vvs:30061_::1-T0-113',)" x="9.26584953401663" y="48.7657390330152" until="120" name="Bergstaffelstraße" fareZone="" fareSymbol="" startFare="" speed="20"/></timestep>
    <timestep time="385860"><vehicle id="('de:vvs:30061_::1-T0-126',)" x="9.26838978241194" y="48.7625408293683" until="0" name="Obertürkh. Bf (Göpp.Str.)" fareZone="" fareSymbol="" startFare="" speed="20"/></timestep>
    <timestep time="385860"><vehicle id="('de:vvs:30061_::1-T0-126',)" x="9.26584953401663" y="48.7657390330152" until="60" name="Bergstaffelstraße" fareZone="" fareSymbol="" startFare="" speed="20"/></timestep>
    <timestep time="408360"><vehicle id="('de:vvs:30062_::1-T0-10',)" x="9.26838978241194" y="48.7625408293683" until="0" name="Obertürkh. Bf (Göpp.Str.)" fareZone="" fareSymbol="" startFare="" speed="20"/></timestep>
    <timestep time="408420"><vehicle id="('de:vvs:30062_::1-T0-10',)" x="9.26079746698688" y="48.7620727095868" until="120" name="Otto-Hirsch-Brücken" fareZone="" fareSymbol="" startFare="" speed="20"/></timestep>
    <timestep time="408480"><vehicle id="('de:vvs:30062_::1-T0-10',)" x="9.25515528378152" y="48.759900213716" until="240" name="Hedelfingen" fareZone="" fareSymbol="" startFare="" speed="20"/></timestep>
    <timestep time="408540"><vehicle id="('de:vvs:30062_::1-T0-10',)" x="9.25239621433911" y="48.7575862618337" until="300" name="Ährenweg" fareZone="" fareSymbol="" startFare="" speed="20"/></timestep>
    <timestep time="425460"><vehicle id="('de:vvs:30062_::1-T0-141',)" x="9.25239621433911" y="48.7575862618337" until="0" name="Ährenweg" fareZone="" fareSymbol="" startFare="" speed="20"/></timestep>
    <timestep time="425520"><vehicle id="('de:vvs:30062_::1-T0-141',)" x="9.25538604518824" y="48.7598097773108" until="60" name="Hedelfingen" fareZone="" fareSymbol="" startFare="" speed="20"/></timestep>
    <timestep time="425580"><vehicle id="('de:vvs:30062_::1-T0-141',)" x="9.26079746698688" y="48.7620727095868" until="120" name="Otto-Hirsch-Brücken" fareZone="" fareSymbol="" startFare="" speed="20"/></timestep>
    <timestep time="425700"><vehicle id="('de:vvs:30062_::1-T0-141',)" x="9.26895773675196" y="48.7619190264031" until="300" name="Obertürkheim Bf" fareZone="" fareSymbol="" startFare="" speed="20"/></timestep>
    <timestep time="452160"><vehicle id="('de:vvs:30062_::1-T0-19',)" x="9.26838978241194" y="48.7625408293683" until="0" name="Obertürkh. Bf (Göpp.Str.)" fareZone="" fareSymbol="" startFare="" speed="20"/></timestep>
    <timestep time="496860"><vehicle id="('de:vvs:30062_::1-T0-199',)" x="9.26895773675196" y="48.7619190264031" until="0" name="Obertürkheim Bf" fareZone="" fareSymbol="" startFare="" speed="20"/></timestep>
    <timestep time="587100"><vehicle id="('de:vvs:30062_::1-T0-282',)" x="9.25239621433911" y="48.7575862618337" until="0" name="Ährenweg" fareZone="" fareSymbol="" startFare="" speed="20"/></timestep>
    <timestep time="587160"><vehicle id="('de:vvs:30062_::1-T0-282',)" x="9.25538604518824" y="48.7598097773108" until="60" name="Hedelfingen" fareZone="" fareSymbol="" startFare="" speed="20"/></timestep>
    <timestep time="608100"><vehicle id="('de:vvs:30065_::1-UJ-10',)" x="9.26895773675196" y="48.7619190264031" until="0" name="Obertürkheim Bf" fareZone="" fareSymbol="" startFare="" speed="20"/></timestep>
    <timestep time="608100"><vehicle id="('de:vvs:30065_::1-UJ-10',)" x="9.26838978241194" y="48.7625408293683" until="60" name="Obertürkh. Bf (Göpp.Str.)" fareZone="" fareSymbol="" startFare="" speed="20"/></timestep>
    <timestep time="608160"><vehicle id="('de:vvs:30065_::1-UJ-10',)" x="9.26079746698688" y="48.7620727095868" until="120" name="Otto-Hirsch-Brücken" fareZone="" fareSymbol="" startFare="" speed="20"/></timestep>
    <timestep time="608280"><vehicle id="('de:vvs:30065_::1-UJ-10',)" x="9.25515528378152" y="48.759900213716" until="300" name="Hedelfingen" fareZone="" fareSymbol="" startFare="" speed="20"/></timestep>
    <timestep time="608340"><vehicle id="('de:vvs:30065_::1-UJ-10',)" x="9.25239621433911" y="48.7575862618337" until="360" name="Ährenweg" fareZone="" fareSymbol="" startFare="" speed="20"/></timestep>
    <timestep time="625620"><vehicle id="('de:vvs:30065_::1-UJ-180',)" x="9.25239621433911" y="48.7575862618337" until="0" name="Ährenweg" fareZone="" fareSymbol="" startFare="" speed="20"/></timestep>
    <timestep time="625680"><vehicle id="('de:vvs:30065_::1-UJ-180',)" x="9.25538604518824" y="48.7598097773108" until="60" name="Hedelfingen" fareZone="" fareSymbol="" startFare="" speed="20"/></timestep>
    <timestep time="625800"><vehicle id="('de:vvs:30065_::1-UJ-180',)" x="9.26079746698688" y="48.7620727095868" until="180" name="Otto-Hirsch-Brücken" fareZone="" fareSymbol="" startFare="" speed="20"/></timestep>
    <timestep time="625920"><vehicle id="('de:vvs:30065_::1-UJ-180',)" x="9.26895773675196" y="48.7619190264031" until="300" name="Obertürkheim Bf" fareZone="" fareSymbol="" startFare="" speed="20"/></timestep>
    <timestep time="650580"><vehicle id="('de:vvs:30065_::1-UJ-21',)" x="9.26838978241194" y="48.7625408293683" until="0" name="Obertürkh. Bf (Göpp.Str.)" fareZone="" fareSymbol="" startFare="" speed="20"/></timestep>
    <timestep time="650640"><vehicle id="('de:vvs:30065_::1-UJ-21',)" x="9.26079746698688" y="48.7620727095868" until="120" name="Otto-Hirsch-Brücken" fareZone="" fareSymbol="" startFare="" speed="20"/></timestep>
    <timestep time="650700"><vehicle id="('de:vvs:30065_::1-UJ-21',)" x="9.25515528378152" y="48.759900213716" until="240" name="Hedelfingen" fareZone="" fareSymbol="" startFare="" speed="20"/></timestep>
    <timestep time="650760"><vehicle id="('de:vvs:30065_::1-UJ-21',)" x="9.25239621433911" y="48.7575862618337" until="300" name="Ährenweg" fareZone="" fareSymbol="" startFare="" speed="20"/></timestep>
    <timestep time="668760"><vehicle id="('de:vvs:31101_::1-T0-1',)" x="9.33818344616906" y="48.7345252149719" until="0" name="Oberessl. Lerchenäcker" fareZone="" fareSymbol="" startFare="" speed="20"/></timestep>
    <timestep time="668880"><vehicle id="('de:vvs:31101_::1-T0-1',)" x="9.33769359451384" y="48.7324314114107" until="120" name="Oberesslingen Steinhalde" fareZone="" fareSymbol="" startFare="" speed="20"/></timestep>
    <timestep time="669000"><vehicle id="('de:vvs:31101_::1-T0-1',)" x="9.33181715893545" y="48.7297777523775" until="240" name="Oberesslingen Herderstr." fareZone="" fareSymbol="" startFare="" speed="20"/></timestep>
    <timestep time="669060"><vehicle id="('de:vvs:31101_::1-T0-1',)" x="9.32856672823013" y="48.7316035604222" until="300" name="Oberessl. Indexstr/Bahnhof" fareZone="" fareSymbol="" startFare="" speed="20"/></timestep>
    <timestep time="669120"><vehicle id="('de:vvs:31101_::1-T0-1',)" x="9.32503122988189" y="48.7335289989714" until="360" name="Oberesslingen Stauffenbergstraße" fareZone="" fareSymbol="" startFare="" speed="20"/></timestep>
    <timestep time="669240"><vehicle id="('de:vvs:31101_::1-T0-1',)" x="9.32177996639073" y="48.7353006617038" until="480" name="Esslingen (N) Bismarckstr." fareZone="" fareSymbol="" startFare="" speed="20"/></timestep>
    <timestep time="669360"><vehicle id="('de:vvs:31101_::1-T0-1',)" x="9.31633642541072" y="48.7365567202432" until="600" name="Esslingen (N) Charlottenplatz" fareZone="" fareSymbol="" startFare="" speed="20"/></timestep>
    <timestep time="669420"><vehicle id="('de:vvs:31101_::1-T0-1',)" x="9.31061615932189" y="48.7370758880845" until="660" name="Esslingen (N) Merkel'sches Bad" fareZone="" fareSymbol="" startFare="" speed="20"/></timestep>
    <timestep time="669480"><vehicle id="('de:vvs:31101_::1-T0-1',)" x="9.30542685253142" y="48.7377372421878" until="720" name="Esslingen (N) Pliensauturm" fareZone="" fareSymbol="" startFare="" speed="20"/></timestep>
    <timestep time="669660"><vehicle id="('de:vvs:31101_::1-T0-1',)" x="9.30123169035884" y="48.7387015059903" until="960" name="Esslingen (N) ZOB" fareZone="" fareSymbol="" startFare="" speed="20"/></timestep>
    <timestep time="669780"><vehicle id="('de:vvs:31101_::1-T0-1',)" x="9.30182076414997" y="48.7417124300569" until="1080" name="Esslingen (N) Schelztor" fareZone="" fareSymbol="" startFare="" speed="20"/></timestep>
    <timestep time="669840"><vehicle id="('de:vvs:31101_::1-T0-1',)" x="9.29644136274995" y="48.7425177563616" until="1140" name="Essl.(N) Schlachthausbrücke" fareZone="" fareSymbol="" startFare="" speed="20"/></timestep>
    <timestep time="669900"><vehicle id="('de:vvs:31101_::1-T0-1',)" x="9.28966779273864" y="48.7420853949668" until="1200" name="Esslingen (N) Volkshochschule" fareZone="" fareSymbol="" startFare="" speed="20"/></timestep>
    <timestep time="670020"><vehicle id="('de:vvs:31101_::1-T0-1',)" x="9.27970660303248" y="48.745428263681" until="1320" name="Mettingen Burgunderstr." fareZone="" fareSymbol="" startFare="" speed="20"/></timestep>
    <timestep time="670080"><vehicle id="('de:vvs:31101_::1-T0-1',)" x="9.2769740930245" y="48.7479977204205" until="1380" name="Mettingen Bf (Trollingerweg)" fareZone="" fareSymbol="" startFare="" speed="20"/></timestep>
    <timestep time="670140"><vehicle id="('de:vvs:31101_::1-T0-1',)" x="9.2750399554947" y="48.7523816737207" until="1440" name="Mettingen Weinstraße" fareZone="" fareSymbol="" startFare="" speed="20"/></timestep>
    <timestep time="670260"><vehicle id="('de:vvs:31101_::1-T0-1',)" x="9.27378289798252" y="48.7562873830292" until="1560" name="Stadtgrenze" fareZone="" fareSymbol="" startFare="" speed="20"/></timestep>
    <timestep time="670440"><vehicle id="('de:vvs:31101_::1-T0-1',)" x="9.26886310271902" y="48.7620271565746" until="1740" name="Obertürkheim Bf" fareZone="" fareSymbol="" startFare="" speed="20"/></timestep>
    <timestep time="727320"><vehicle id="('de:vvs:31101_::1-T0-100',)" x="9.26886310271902" y="48.7620271565746" until="0" name="Obertürkheim Bf" fareZone="" fareSymbol="" startFare="" speed="20"/></timestep>
    <timestep time="727440"><vehicle id="('de:vvs:31101_::1-T0-100',)" x="9.27378289798252" y="48.7562873830292" until="120" name="Stadtgrenze" fareZone="" fareSymbol="" startFare="" speed="20"/></timestep>
    <timestep time="727500"><vehicle id="('de:vvs:31101_::1-T0-100',)" x="9.27530809560895" y="48.7516796231537" until="180" name="Mettingen Weinstraße" fareZone="" fareSymbol="" startFare="" speed="20"/></timestep>
    <timestep time="727620"><vehicle id="('de:vvs:31101_::1-T0-100',)" x="9.2771358795907" y="48.7477455426205" until="300" name="Mettingen Bf (Trollingerweg)" fareZone="" fareSymbol="" startFare="" speed="20"/></timestep>
    <timestep time="727680"><vehicle id="('de:vvs:31101_::1-T0-100',)" x="9.27962507015077" y="48.7454374544017" until="360" name="Mettingen Burgunderstr." fareZone="" fareSymbol="" startFare="" speed="20"/></timestep>
    <timestep time="727740"><vehicle id="('de:vvs:31101_::1-T0-100',)" x="9.28966779273864" y="48.7420853949668" until="420" name="Esslingen (N) Volkshochschule" fareZone="" fareSymbol="" startFare="" speed="20"/></timestep>
    <timestep time="727860"><vehicle id="('de:vvs:31101_::1-T0-100',)" x="9.29644136274995" y="48.7425177563616" until="540" name="Essl.(N) Schlachthausbrücke" fareZone="" fareSymbol="" startFare="" speed="20"/></timestep>
    <timestep time="727920"><vehicle id="('de:vvs:31101_::1-T0-100',)" x="9.30182076414997" y="48.7417124300569" until="600" name="Esslingen (N) Schelztor" fareZone="" fareSymbol="" startFare="" speed="20"/></timestep>
    <timestep time="728100"><vehicle id="('de:vvs:31101_::1-T0-100',)" x="9.30136979788109" y="48.7390608419837" until="900" name="Esslingen (N) ZOB" fareZone="" fareSymbol="" startFare="" speed="20"/></timestep>
    <timestep time="728160"><vehicle id="('de:vvs:31101_::1-T0-100',)" x="9.30611926953613" y="48.7375825296828" until="960" name="Esslingen (N) Pliensauturm" fareZone="" fareSymbol="" startFare="" speed="20"/></timestep>
    <timestep time="728280"><vehicle id="('de:vvs:31101_::1-T0-100',)" x="9.31221923618753" y="48.7368916985358" until="1080" name="Esslingen (N) Merkel'sches Bad" fareZone="" fareSymbol="" startFare="" speed="20"/></timestep>
    <timestep time="728340"><vehicle id="('de:vvs:31101_::1-T0-100',)" x="9.31633642541072" y="48.7365567202432" until="1140" name="Esslingen (N) Charlottenplatz" fareZone="" fareSymbol="" startFare="" speed="20"/></timestep>
    <timestep time="728460"><vehicle id="('de:vvs:31101_::1-T0-100',)" x="9.32141395234765" y="48.7354635492336" until="1260" name="Esslingen (N) Bismarckstr." fareZone="" fareSymbol="" startFare="" speed="20"/></timestep>
    <timestep time="728520"><vehicle id="('de:vvs:31101_::1-T0-100',)" x="9.32543759267122" y="48.7333030385305" until="1320" name="Oberesslingen Stauffenbergstraße" fareZone="" fareSymbol="" startFare="" speed="20"/></timestep>
    <timestep time="728580"><vehicle id="('de:vvs:31101_::1-T0-100',)" x="9.32901378074653" y="48.7313684785747" until="1380" name="Oberessl. Indexstr/Bahnhof" fareZone="" fareSymbol="" startFare="" speed="20"/></timestep>
    <timestep time="728700"><vehicle id="('de:vvs:31101_::1-T0-100',)" x="9.33294970792177" y="48.7304309294264" until="1500" name="Oberesslingen Herderstr." fareZone="" fareSymbol="" startFare="" speed="20"/></timestep>
    <timestep time="728760"><vehicle id="('de:vvs:31101_::1-T0-100',)" x="9.33769359451384" y="48.7324314114107" until="1560" name="Oberesslingen Steinhalde" fareZone="" fareSymbol="" startFare="" speed="20"/></timestep>
    <timestep time="728940"><vehicle id="('de:vvs:31101_::1-T0-100',)" x="9.33818344616906" y="48.7345252149719" until="1740" name="Oberessl. Lerchenäcker" fareZone="" fareSymbol="" startFare="" speed="20"/></timestep>
    <timestep time="798180"><vehicle id="('de:vvs:31101_::1-T0-124',)" x="9.33818344616906" y="48.7345252149719" until="0" name="Oberessl. Lerchenäcker" fareZone="" fareSymbol="" startFare="" speed="20"/></timestep>
    <timestep time="798300"><vehicle id="('de:vvs:31101_::1-T0-124',)" x="9.33769359451384" y="48.7324314114107" until="120" name="Oberesslingen Steinhalde" fareZone="" fareSymbol="" startFare="" speed="20"/></timestep>
    <timestep time="798420"><vehicle id="('de:vvs:31101_::1-T0-124',)" x="9.33181715893545" y="48.7297777523775" until="240" name="Oberesslingen Herderstr." fareZone="" fareSymbol="" startFare="" speed="20"/></timestep>
    <timestep time="798480"><vehicle id="('de:vvs:31101_::1-T0-124',)" x="9.32856672823013" y="48.7316035604222" until="300" name="Oberessl. Indexstr/Bahnhof" fareZone="" fareSymbol="" startFare="" speed="20"/></timestep>
    <timestep time="798540"><vehicle id="('de:vvs:31101_::1-T0-124',)" x="9.32503122988189" y="48.7335289989714" until="360" name="Oberesslingen Stauffenbergstraße" fareZone="" fareSymbol="" startFare="" speed="20"/></timestep>
    <timestep time="798660"><vehicle id="('de:vvs:31101_::1-T0-124',)" x="9.32177996639073" y="48.7353006617038" until="480" name="Esslingen (N) Bismarckstr." fareZone="" fareSymbol="" startFare="" speed="20"/></timestep>
    <timestep time="798780"><vehicle id="('de:vvs:31101_::1-T0-124',)" x="9.31633642541072" y="48.7365567202432" until="600" name="Esslingen (N) Charlottenplatz" fareZone="" fareSymbol="" startFare="" speed="20"/></timestep>
    <timestep time="798840"><vehicle id="('de:vvs:31101_::1-T0-124',)" x="9.31061615932189" y="48.7370758880845" until="660" name="Esslingen (N) Merkel'sches Bad" fareZone="" fareSymbol="" startFare="" speed="20"/></timestep>
    <timestep time="798900"><vehicle id="('de:vvs:31101_::1-T0-124',)" x="9.30542685253142" y="48.7377372421878" until="720" name="Esslingen (N) Pliensauturm" fareZone="" fareSymbol="" startFare="" speed="20"/></timestep>
    <timestep time="799080"><vehicle id="('de:vvs:31101_::1-T0-124',)" x="9.30123169035884" y="48.7387015059903" until="900" name="Esslingen (N) ZOB" fareZone="" fareSymbol="" startFare="" speed="20"/></timestep>
    <timestep time="846120"><vehicle id="('de:vvs:31101_::1-T0-125',)" x="9.33818344616906" y="48.7345252149719" until="0" name="Oberessl. Lerchenäcker" fareZone="" fareSymbol="" startFare="" speed="20"/></timestep>
    <timestep time="846240"><vehicle id="('de:vvs:31101_::1-T0-125',)" x="9.33769359451384" y="48.7324314114107" until="120" name="Oberesslingen Steinhalde" fareZone="" fareSymbol="" startFare="" speed="20"/></timestep>
    <timestep time="846360"><vehicle id="('de:vvs:31101_::1-T0-125',)" x="9.33181715893545" y="48.7297777523775" until="240" name="Oberesslingen Herderstr." fareZone="" fareSymbol="" startFare="" speed="20"/></timestep>
    <timestep time="846420"><vehicle id="('de:vvs:31101_::1-T0-125',)" x="9.32856672823013" y="48.7316035604222" until="300" name="Oberessl. Indexstr/Bahnhof" fareZone="" fareSymbol="" startFare="" speed="20"/></timestep>
    <timestep time="846480"><vehicle id="('de:vvs:31101_::1-T0-125',)" x="9.32503122988189" y="48.7335289989714" until="360" name="Oberesslingen Stauffenbergstraße" fareZone="" fareSymbol="" startFare="" speed="20"/></timestep>
    <timestep time="846600"><vehicle id="('de:vvs:31101_::1-T0-125',)" x="9.32177996639073" y="48.7353006617038" until="480" name="Esslingen (N) Bismarckstr." fareZone="" fareSymbol="" startFare="" speed="20"/></timestep>
    <timestep time="846720"><vehicle id="('de:vvs:31101_::1-T0-125',)" x="9.31633642541072" y="48.7365567202432" until="600" name="Esslingen (N) Charlottenplatz" fareZone="" fareSymbol="" startFare="" speed="20"/></timestep>
    <timestep time="846780"><vehicle id="('de:vvs:31101_::1-T0-125',)" x="9.31061615932189" y="48.7370758880845" until="660" name="Esslingen (N) Merkel'sches Bad" fareZone="" fareSymbol="" startFare="" speed="20"/></timestep>
    <timestep time="846840"><vehicle id="('de:vvs:31101_::1-T0-125',)" x="9.30542685253142" y="48.7377372421878" until="720" name="Esslingen (N) Pliensauturm" fareZone="" fareSymbol="" startFare="" speed="20"/></timestep>
    <timestep time="847020"><vehicle id="('de:vvs:31101_::1-T0-125',)" x="9.30123169035884" y="48.7387015059903" until="960" name="Esslingen (N) ZOB" fareZone="" fareSymbol="" startFare="" speed="20"/></timestep>
    <timestep time="847140"><vehicle id="('de:vvs:31101_::1-T0-125',)" x="9.30182076414997" y="48.7417124300569" until="1080" name="Esslingen (N) Schelztor" fareZone="" fareSymbol="" startFare="" speed="20"/></timestep>
    <timestep time="847200"><vehicle id="('de:vvs:31101_::1-T0-125',)" x="9.29644136274995" y="48.7425177563616" until="1140" name="Essl.(N) Schlachthausbrücke" fareZone="" fareSymbol="" startFare="" speed="20"/></timestep>
    <timestep time="847260"><vehicle id="('de:vvs:31101_::1-T0-125',)" x="9.28966779273864" y="48.7420853949668" until="1200" name="Esslingen (N) Volkshochschule" fareZone="" fareSymbol="" startFare="" speed="20"/></timestep>
    <timestep time="847320"><vehicle id="('de:vvs:31101_::1-T0-125',)" x="9.28055098436243" y="48.7432320527027" until="1260" name="Mettingen Cannstatter Str." fareZone="" fareSymbol="" startFare="" speed="20"/></timestep>
    <timestep time="847380"><vehicle id="('de:vvs:31101_::1-T0-125',)" x="9.27799018145778" y="48.7448569101212" until="1320" name="Mettingen Alte Schifffahrt" fareZone="" fareSymbol="" startFare="" speed="20"/></timestep>
    <timestep time="847440"><vehicle id="('de:vvs:31101_::1-T0-125',)" x="9.27640001820509" y="48.7474595559785" until="1380" name="Mettingen Bf" fareZone="" fareSymbol="" startFare="" speed="20"/></timestep>
    <timestep time="871740"><vehicle id="('de:vvs:31101_::1-T0-133',)" x="9.32177996639073" y="48.7353006617038" until="0" name="Esslingen (N) Bismarckstr." fareZone="" fareSymbol="" startFare="" speed="20"/></timestep>
    <timestep time="871860"><vehicle id="('de:vvs:31101_::1-T0-133',)" x="9.31633642541072" y="48.7365567202432" until="120" name="Esslingen (N) Charlottenplatz" fareZone="" fareSymbol="" startFare="" speed="20"/></timestep>
    <timestep time="871920"><vehicle id="('de:vvs:31101_::1-T0-133',)" x="9.31061615932189" y="48.7370758880845" until="180" name="Esslingen (N) Merkel'sches Bad" fareZone="" fareSymbol="" startFare="" speed="20"/></timestep>
    <timestep time="871980"><vehicle id="('de:vvs:31101_::1-T0-133',)" x="9.30542685253142" y="48.7377372421878" until="240" name="Esslingen (N) Pliensauturm" fareZone="" fareSymbol="" startFare="" speed="20"/></timestep>
    <timestep time="872160"><vehicle id="('de:vvs:31101_::1-T0-133',)" x="9.30123169035884" y="48.7387015059903" until="480" name="Esslingen (N) ZOB" fareZone="" fareSymbol="" startFare="" speed="20"/></timestep>
    <timestep time="872280"><vehicle id="('de:vvs:31101_::1-T0-133',)" x="9.30182076414997" y="48.7417124300569" until="600" name="Esslingen (N) Schelztor" fareZone="" fareSymbol="" startFare="" speed="20"/></timestep>
    <timestep time="872340"><vehicle id="('de:vvs:31101_::1-T0-133',)" x="9.29644136274995" y="48.7425177563616" until="660" name="Essl.(N) Schlachthausbrücke" fareZone="" fareSymbol="" startFare="" speed="20"/></timestep>
    <timestep time="872400"><vehicle id="('de:vvs:31101_::1-T0-133',)" x="9.28966779273864" y="48.7420853949668" until="720" name="Esslingen (N) Volkshochschule" fareZone="" fareSymbol="" startFare="" speed="20"/></timestep>
    <timestep time="872460"><vehicle id="('de:vvs:31101_::1-T0-133',)" x="9.28055098436243" y="48.7432320527027" until="780" name="Mettingen Cannstatter Str." fareZone="" fareSymbol="" startFare="" speed="20"/></timestep>
    <timestep time="872520"><vehicle id="('de:vvs:31101_::1-T0-133',)" x="9.27799018145778" y="48.7448569101212" until="840" name="Mettingen Alte Schifffahrt" fareZone="" fareSymbol="" startFare="" speed="20"/></timestep>
    <timestep time="872580"><vehicle id="('de:vvs:31101_::1-T0-133',)" x="9.27640001820509" y="48.7474595559785" until="900" name="Mettingen Bf" fareZone="" fareSymbol="" startFare="" speed="20"/></timestep>
    <timestep time="890040"><vehicle id="('de:vvs:31101_::1-T0-138',)" x="9.32177996639073" y="48.7353006617038" until="0" name="Esslingen (N) Bismarckstr." fareZone="" fareSymbol="" startFare="" speed="20"/></timestep>
    <timestep time="890160"><vehicle id="('de:vvs:31101_::1-T0-138',)" x="9.31633642541072" y="48.7365567202432" until="120" name="Esslingen (N) Charlottenplatz" fareZone="" fareSymbol="" startFare="" speed="20"/></timestep>
    <timestep time="890220"><vehicle id="('de:vvs:31101_::1-T0-138',)" x="9.31061615932189" y="48.7370758880845" until="180" name="Esslingen (N) Merkel'sches Bad" fareZone="" fareSymbol="" startFare="" speed="20"/></timestep>
    <timestep time="890280"><vehicle id="('de:vvs:31101_::1-T0-138',)" x="9.30542685253142" y="48.7377372421878" until="240" name="Esslingen (N) Pliensauturm" fareZone="" fareSymbol="" startFare="" speed="20"/></timestep>
    <timestep time="890460"><vehicle id="('de:vvs:31101_::1-T0-138',)" x="9.30123169035884" y="48.7387015059903" until="480" name="Esslingen (N) ZOB" fareZone="" fareSymbol="" startFare="" speed="20"/></timestep>
    <timestep time="890580"><vehicle id="('de:vvs:31101_::1-T0-138',)" x="9.30182076414997" y="48.7417124300569" until="600" name="Esslingen (N) Schelztor" fareZone="" fareSymbol="" startFare="" speed="20"/></timestep>
    <timestep time="890640"><vehicle id="('de:vvs:31101_::1-T0-138',)" x="9.29644136274995" y="48.7425177563616" until="660" name="Essl.(N) Schlachthausbrücke" fareZone="" fareSymbol="" startFare="" speed="20"/></timestep>
    <timestep time="890700"><vehicle id="('de:vvs:31101_::1-T0-138',)" x="9.28966779273864" y="48.7420853949668" until="720" name="Esslingen (N) Volkshochschule" fareZone="" fareSymbol="" startFare="" speed="20"/></timestep>
    <timestep time="890820"><vehicle id="('de:vvs:31101_::1-T0-138',)" x="9.27970660303248" y="48.745428263681" until="840" name="Mettingen Burgunderstr." fareZone="" fareSymbol="" startFare="" speed="20"/></timestep>
    <timestep time="890880"><vehicle id="('de:vvs:31101_::1-T0-138',)" x="9.2769740930245" y="48.7479977204205" until="900" name="Mettingen Bf (Trollingerweg)" fareZone="" fareSymbol="" startFare="" speed="20"/></timestep>
    <timestep time="890940"><vehicle id="('de:vvs:31101_::1-T0-138',)" x="9.2750399554947" y="48.7523816737207" until="960" name="Mettingen Weinstraße" fareZone="" fareSymbol="" startFare="" speed="20"/></timestep>
    <timestep time="891060"><vehicle id="('de:vvs:31101_::1-T0-138',)" x="9.27378289798252" y="48.7562873830292" until="1080" name="Stadtgrenze" fareZone="" fareSymbol="" startFare="" speed="20"/></timestep>
    <timestep time="891240"><vehicle id="('de:vvs:31101_::1-T0-138',)" x="9.26886310271902" y="48.7620271565746" until="1260" name="Obertürkheim Bf" fareZone="" fareSymbol="" startFare="" speed="20"/></timestep>
    <timestep time="914640"><vehicle id="('de:vvs:31102_::3-T0-1',)" x="9.35881732505345" y="48.7303711345406" until="0" name="Zell (Essl.) Albblick" fareZone="" fareSymbol="" startFare="" speed="20"/></timestep>
    <timestep time="914700"><vehicle id="('de:vvs:31102_::3-T0-1',)" x="9.35941572069191" y="48.7285078259218" until="60" name="Zell (Essl.) Hangelst. Kirche" fareZone="" fareSymbol="" startFare="" speed="20"/></timestep>
    <timestep time="914820"><vehicle id="('de:vvs:31102_::3-T0-1',)" x="9.35921406238626" y="48.7250103846091" until="180" name="Zell Bf" fareZone="" fareSymbol="" startFare="" speed="20"/></timestep>
    <timestep time="914880"><vehicle id="('de:vvs:31102_::3-T0-1',)" x="9.35065996839456" y="48.7262687467833" until="240" name="Zell (Essl.) Alte Heusteige" fareZone="" fareSymbol="" startFare="" speed="20"/></timestep>
    <timestep time="915000"><vehicle id="('de:vvs:31102_::3-T0-1',)" x="9.34016746530245" y="48.7283775139252" until="360" name="Oberessl. Gartenstadt" fareZone="" fareSymbol="" startFare="" speed="20"/></timestep>
    <timestep time="915060"><vehicle id="('de:vvs:31102_::3-T0-1',)" x="9.33730704492656" y="48.7295189879973" until="420" name="Oberessl. Weiherstraße" fareZone="" fareSymbol="" startFare="" speed="20"/></timestep>
    <timestep time="915120"><vehicle id="('de:vvs:31102_::3-T0-1',)" x="9.33472184478138" y="48.7291398639451" until="480" name="Oberesslingen Zimmerbachstr." fareZone="" fareSymbol="" startFare="" speed="20"/></timestep>
    <timestep time="915180"><vehicle id="('de:vvs:31102_::3-T0-1',)" x="9.33294970792177" y="48.7304309294264" until="540" name="Oberesslingen Herderstr." fareZone="" fareSymbol="" startFare="" speed="20"/></timestep>
    <timestep time="915240"><vehicle id="('de:vvs:31102_::3-T0-1',)" x="9.33186491612038" y="48.7328979983719" until="600" name="Oberesslingen Kreuzstr." fareZone="" fareSymbol="" startFare="" speed="20"/></timestep>
    <timestep time="915300"><vehicle id="('de:vvs:31102_::3-T0-1',)" x="9.32724191566503" y="48.734826636783" until="660" name="Oberessl. Paracelsusstraße" fareZone="" fareSymbol="" startFare="" speed="20"/></timestep>
    <timestep time="915420"><vehicle id="('de:vvs:31102_::3-T0-1',)" x="9.32093395514189" y="48.739070861968" until="780" name="Esslingen (N) Reutlinger Str." fareZone="" fareSymbol="" startFare="" speed="20"/></timestep>
    <timestep time="915480"><vehicle id="('de:vvs:31102_::3-T0-1',)" x="9.31614489755482" y="48.7406937725976" until="840" name="Essl.(N) Ebershaldenfriedhof" fareZone="" fareSymbol="" startFare="" speed="20"/></timestep>
    <timestep time="915600"><vehicle id="('de:vvs:31102_::3-T0-1',)" x="9.31095136657824" y="48.742920071273" until="960" name="Esslingen (N) Neckar Forum" fareZone="" fareSymbol="" startFare="" speed="20"/></timestep>
    <timestep time="915660"><vehicle id="('de:vvs:31102_::3-T0-1',)" x="9.3063317542383" y="48.7434540293677" until="1020" name="Esslingen (N) Marktplatz" fareZone="" fareSymbol="" startFare="" speed="20"/></timestep>
    <timestep time="915720"><vehicle id="('de:vvs:31102_::3-T0-1',)" x="9.30251638302724" y="48.7420792925116" until="1080" name="Esslingen (N) Schelztor" fareZone="" fareSymbol="" startFare="" speed="20"/></timestep>
    <timestep time="915900"><vehicle id="('de:vvs:31102_::3-T0-1',)" x="9.30136979788109" y="48.7390608419837" until="1380" name="Esslingen (N) ZOB" fareZone="" fareSymbol="" startFare="" speed="20"/></timestep>
    <timestep time="915960"><vehicle id="('de:vvs:31102_::3-T0-1',)" x="9.30611926953613" y="48.7375825296828" until="1440" name="Esslingen (N) Pliensauturm" fareZone="" fareSymbol="" startFare="" speed="20"/></timestep>
    <timestep time="916020"><vehicle id="('de:vvs:31102_::3-T0-1',)" x="9.30897648232241" y="48.7379435797036" until="1500" name="Esslingen (N) Maille" fareZone="" fareSymbol="" startFare="" speed="20"/></timestep>