<?xml version="1.0" encoding="UTF-8"?>

<!-- generated on 2023-11-28 15:27:49.801877 by gtfs2fcd.py v1_19_0+0000-baa66a0f364
<configuration>
    <gtfs value="gtfs_realtime.zip"/>
    <date value="20231009"/>
    <network value="osm.net.xml.gz"/>
</configuration>
-->

<fcd-export>
    <timestep time="8022780"><vehicle id="('de:vvs:vvs-11-12::1-T0-1',)" x="9.30066036508952" y="48.7386490463314" until="0" name="Esslingen (N)" fareZone="" fareSymbol="" startFare="" speed="20"/></timestep>
    <timestep time="8069280"><vehicle id="('de:vvs:vvs-11-12::1-T0-10',)" x="9.30052306940846" y="48.7384245940344" until="0" name="Esslingen (N)" fareZone="" fareSymbol="" startFare="" speed="20"/></timestep>
    <timestep time="8116320"><vehicle id="('de:vvs:vvs-11-12::1-T0-24',)" x="9.30055047473161" y="48.7384604922023" until="0" name="Esslingen (N)" fareZone="" fareSymbol="" startFare="" speed="20"/></timestep>
    <timestep time="8184960"><vehicle id="('de:vvs:vvs-11-12::1-T0-30',)" x="9.30046815147943" y="48.7383348130667" until="0" name="Esslingen (N)" fareZone="" fareSymbol="" startFare="" speed="20"/></timestep>
    <timestep time="8264280"><vehicle id="('de:vvs:vvs-11-12::1-T0-7',)" x="9.30061909566533" y="48.7385682222028" until="0" name="Esslingen (N)" fareZone="" fareSymbol="" startFare="" speed="20"/></timestep>
    <timestep time="8289780"><vehicle id="('de:vvs:vvs-11-16::1-T0-10',)" x="9.30066036508952" y="48.7386490463314" until="0" name="Esslingen (N)" fareZone="" fareSymbol="" startFare="" speed="20"/></timestep>
    <timestep time="8348280"><vehicle id="('de:vvs:vvs-11-16::1-T0-100',)" x="9.30061909566533" y="48.7385682222028" until="0" name="Esslingen (N)" fareZone="" fareSymbol="" startFare="" speed="20"/></timestep>
    <timestep time="8369460"><vehicle id="('de:vvs:vvs-11-16::1-T0-11',)" x="9.30055047473161" y="48.7384604922023" until="0" name="Esslingen (N)" fareZone="" fareSymbol="" startFare="" speed="20"/></timestep>
    <timestep time="8438940"><vehicle id="('de:vvs:vvs-11-18::1-T0-1',)" x="9.30066036508952" y="48.7386490463314" until="0" name="Esslingen (N)" fareZone="" fareSymbol="" startFare="" speed="20"/></timestep>
    <timestep time="8496180"><vehicle id="('de:vvs:vvs-11-18::1-T0-13',)" x="9.30055047473161" y="48.7384604922023" until="0" name="Esslingen (N)" fareZone="" fareSymbol="" startFare="" speed="20"/></timestep>
    <timestep time="8519640"><vehicle id="('de:vvs:vvs-11-18::1-T0-29',)" x="9.30061909566533" y="48.7385682222028" until="0" name="Esslingen (N)" fareZone="" fareSymbol="" startFare="" speed="20"/></timestep>
    <timestep time="8568540"><vehicle id="('de:vvs:vvs-11-18::1-T0-36',)" x="9.30046815147943" y="48.7383348130667" until="0" name="Esslingen (N)" fareZone="" fareSymbol="" startFare="" speed="20"/></timestep>
    <timestep time="8651880"><vehicle id="('de:vvs:vvs-11-5::1-T0-1',)" x="9.30066036508952" y="48.7386490463314" until="0" name="Esslingen (N)" fareZone="" fareSymbol="" startFare="" speed="20"/></timestep>
    <timestep time="8726760"><vehicle id="('de:vvs:vvs-11-5::1-T0-104',)" x="9.30061909566533" y="48.7385682222028" until="0" name="Esslingen (N)" fareZone="" fareSymbol="" startFare="" speed="20"/></timestep>
</fcd-export>
