<?xml version="1.0" encoding="UTF-8"?>

<!-- generated on 2025-02-14 14:25:59 by Eclipse SUMO sumo Version 1.19.0
<configuration xmlns:xsi="http://www.w3.org/2001/XMLSchema-instance" xsi:noNamespaceSchemaLocation="http://sumo.dlr.de/xsd/sumoConfiguration.xsd">

    <input>
        <net-file value="Without_transport\crr.net.xml"/>
        <route-files value="Without_transport\flows.rou.xml"/>
        <additional-files value="Without_transport\osm_polygons.add.xml,Without_transport\ basic.vType.xml,Without_transport\ additional.xml,Without_transport\ data.rou.xml"/>
    </input>

    <output>
        <output-prefix value="output."/>
        <emission-output value="emissions.xml"/>
        <summary-output value="Without_transport\summary.xml"/>
        <person-summary-output value="Without_transport\person.summary.xml"/>
        <tripinfo-output value="Without_transport\tripinfo.xml"/>
        <tripinfo-output.write-unfinished value="false"/>
        <statistic-output value="Without_transport\statistics.xml"/>
    </output>

    <processing>
        <lateral-resolution value="0.8"/>
        <ignore-junction-blocker value="60"/>
        <ignore-route-errors value="true"/>
        <collision.action value="teleport"/>
        <time-to-teleport value="300"/>
        <max-depart-delay value="900"/>
        <time-to-impatience value="120"/>
        <parking.maneuver value="true"/>
        <pedestrian.model value="striping"/>
        <pedestrian.striping.stripe-width value="0.55"/>
        <pedestrian.striping.dawdling value="0.2"/>
        <pedestrian.striping.jamtime value="60"/>
        <pedestrian.striping.jamtime.crossing value="10"/>
        <pedestrian.striping.reserve-oncoming value="0.25"/>
        <pedestrian.striping.reserve-oncoming.junctions value="0.34"/>
        <ride.stop-tolerance value="25"/>
    </processing>

    <routing>
        <routing-algorithm value="astar"/>
        <persontrip.walkfactor value="0.75"/>
        <persontrip.transfer.car-walk value="parkingAreas,allJunctions"/>
        <persontrip.transfer.taxi-walk value="parkingAreas,allJunctions"/>
        <persontrip.transfer.walk-taxi value="parkingAreas,allJunctions"/>
        <persontrip.taxi.waiting-time value="300"/>
        <device.rerouting.probability value="1"/>
        <device.rerouting.period value="300"/>
        <device.rerouting.pre-period value="300"/>
        <device.rerouting.threads value="64"/>
        <device.rerouting.bike-speeds value="true"/>
        <person-device.rerouting.probability value="1"/>
        <person-device.rerouting.period value="300"/>
    </routing>

    <report>
        <verbose value="true"/>
        <no-warnings value="true"/>
        <duration-log.disable value="false"/>
        <duration-log.statistics value="true"/>
        <no-step-log value="false"/>
        <step-log.period value="100"/>
    </report>

    <taxi_device>
        <device.taxi.dispatch-algorithm value="greedy"/>
        <device.taxi.dispatch-algorithm.output value="Without_transport\taxi.dispatch.xml"/>
        <device.taxi.dispatch-period value="60"/>
        <device.taxi.idle-algorithm value="stop"/>
        <device.taxi.idle-algorithm.output value="Without_transport\taxi.idle.xml"/>
    </taxi_device>

    <traci_server>
        <remote-port value="51021"/>
    </traci_server>

    <random_number>
        <seed value="42"/>
    </random_number>

    <gui_only>
        <gui-settings-file value="Without_transport\default-gui.xml"/>
    </gui_only>

</configuration>
-->

<tripinfos xmlns:xsi="http://www.w3.org/2001/XMLSchema-instance" xsi:noNamespaceSchemaLocation="http://sumo.dlr.de/xsd/tripinfo_file.xsd">
    <tripinfo id="pt_bus_114:5.0" depart="0.00" departLane="-390841675_1" departPos="12.10" departPosLat="0.00" departSpeed="0.00" departDelay="0.00" arrival="214.00" arrivalLane="122574095_1" arrivalPos="35.58" arrivalPosLat="0.00" arrivalSpeed="4.51" duration="214.00" routeLength="1529.70" waitingTime="0.00" waitingCount="0" stopTime="68.00" timeLoss="27.18" rerouteNo="0" devices="tripinfo_pt_bus_114:5.0 routing_pt_bus_114:5.0 emissions_pt_bus_114:5.0" vType="pt_bus" speedFactor="1.00" vaporized="">
        <emissions CO_abs="4677.146023" CO2_abs="2311691.824939" HC_abs="1069.963328" PMx_abs="490.412787" NOx_abs="19556.634997" fuel_abs="731428.736443" electricity_abs="0"/>
    </tripinfo>
    <tripinfo id="pt_light_rail_U13:0.0" depart="0.00" departLane="673171637_0" departPos="109.60" departPosLat="0.00" departSpeed="0.00" departDelay="0.00" arrival="249.00" arrivalLane="172027782#5_0" arrivalPos="1439.03" arrivalPosLat="0.00" arrivalSpeed="1.00" duration="249.00" routeLength="1862.23" waitingTime="0.00" waitingCount="0" stopTime="120.00" timeLoss="61.92" rerouteNo="0" devices="tripinfo_pt_light_rail_U13:0.0 routing_pt_light_rail_U13:0.0 emissions_pt_light_rail_U13:0.0" vType="pt_light_rail" speedFactor="1.00" vaporized="">
        <emissions CO_abs="0" CO2_abs="0" HC_abs="0" PMx_abs="0" NOx_abs="0" fuel_abs="0" electricity_abs="0"/>
    </tripinfo>
    <tripinfo id="pt_light_rail_U13:1.0" depart="0.00" departLane="68552415#0_0" departPos="109.60" departPosLat="0.00" departSpeed="0.00" departDelay="0.00" arrival="254.00" arrivalLane="172027783_0" arrivalPos="98.63" arrivalPosLat="0.00" arrivalSpeed="1.00" duration="254.00" routeLength="1860.56" waitingTime="0.00" waitingCount="0" stopTime="120.00" timeLoss="66.98" rerouteNo="0" devices="tripinfo_pt_light_rail_U13:1.0 routing_pt_light_rail_U13:1.0 emissions_pt_light_rail_U13:1.0" vType="pt_light_rail" speedFactor="1.00" vaporized="">
        <emissions CO_abs="0" CO2_abs="0" HC_abs="0" PMx_abs="0" NOx_abs="0" fuel_abs="0" electricity_abs="0"/>
    </tripinfo>
    <tripinfo id="pt_light_rail_U9:0.0" depart="51.00" departLane="673171637_0" departPos="109.60" departPosLat="0.00" departSpeed="0.00" departDelay="0.00" arrival="265.00" arrivalLane="172027782#5_0" arrivalPos="1439.03" arrivalPosLat="0.00" arrivalSpeed="27.78" duration="214.00" routeLength="1862.23" waitingTime="0.00" waitingCount="0" stopTime="90.00" timeLoss="56.50" rerouteNo="0" devices="tripinfo_pt_light_rail_U9:0.0 routing_pt_light_rail_U9:0.0 emissions_pt_light_rail_U9:0.0" vType="pt_light_rail" speedFactor="1.00" vaporized="">
        <emissions CO_abs="0" CO2_abs="0" HC_abs="0" PMx_abs="0" NOx_abs="0" fuel_abs="0" electricity_abs="0"/>
    </tripinfo>
    <tripinfo id="pt_bus_61:1.0" depart="0.00" departLane="431444776#1_0" departPos="12.10" departPosLat="0.00" departSpeed="0.00" departDelay="0.00" arrival="276.00" arrivalLane="-676917368#0_1" arrivalPos="22.31" arrivalPosLat="0.00" arrivalSpeed="0.67" duration="276.00" routeLength="1030.97" waitingTime="37.00" waitingCount="3" stopTime="121.00" timeLoss="74.56" rerouteNo="0" devices="tripinfo_pt_bus_61:1.0 routing_pt_bus_61:1.0 emissions_pt_bus_61:1.0" vType="pt_bus" speedFactor="1.00" vaporized="">
        <emissions CO_abs="5989.259242" CO2_abs="2444560.594725" HC_abs="1368.077640" PMx_abs="614.217602" NOx_abs="22480.668416" fuel_abs="773288.841196" electricity_abs="0"/>
    </tripinfo>
    <tripinfo id="pt_light_rail_U9:1.0" depart="52.00" departLane="68552415#0_0" departPos="109.60" departPosLat="0.00" departSpeed="0.00" departDelay="0.00" arrival="306.00" arrivalLane="172027783_0" arrivalPos="98.63" arrivalPosLat="0.00" arrivalSpeed="1.00" duration="254.00" routeLength="1860.56" waitingTime="0.00" waitingCount="0" stopTime="120.00" timeLoss="66.98" rerouteNo="0" devices="tripinfo_pt_light_rail_U9:1.0 routing_pt_light_rail_U9:1.0 emissions_pt_light_rail_U9:1.0" vType="pt_light_rail" speedFactor="1.00" vaporized="">
        <emissions CO_abs="0" CO2_abs="0" HC_abs="0" PMx_abs="0" NOx_abs="0" fuel_abs="0" electricity_abs="0"/>
    </tripinfo>
    <tripinfo id="pt_train_RE_5:0.0" depart="0.00" departLane="156199094#3_0" departPos="135.10" departPosLat="0.00" departSpeed="0.00" departDelay="0.00" arrival="317.00" arrivalLane="48316096#2_0" arrivalPos="589.00" arrivalPosLat="0.00" arrivalSpeed="7.75" duration="317.00" routeLength="4125.58" waitingTime="0.00" waitingCount="0" stopTime="60.00" timeLoss="158.59" rerouteNo="0" devices="tripinfo_pt_train_RE_5:0.0 routing_pt_train_RE_5:0.0 emissions_pt_train_RE_5:0.0" vType="pt_train" speedFactor="1.00" vaporized="">
        <emissions CO_abs="11663.485655" CO2_abs="5896211.708190" HC_abs="2772.382452" PMx_abs="2314.427146" NOx_abs="82412.669696" fuel_abs="1855184.126634" electricity_abs="0"/>
    </tripinfo>
    <tripinfo id="pt_bus_816:1.0" depart="0.00" departLane="-294067066#1_1" departPos="12.10" departPosLat="0.00" departSpeed="0.00" departDelay="0.00" arrival="416.00" arrivalLane="29146499#2_1" arrivalPos="40.22" arrivalPosLat="0.00" arrivalSpeed="3.49" duration="416.00" routeLength="2061.50" waitingTime="50.00" waitingCount="3" stopTime="114.00" timeLoss="108.51" rerouteNo="0" devices="tripinfo_pt_bus_816:1.0 routing_pt_bus_816:1.0 emissions_pt_bus_816:1.0" vType="pt_bus" speedFactor="1.00" vaporized="">
        <emissions CO_abs="8994.525078" CO2_abs="4017100.991056" HC_abs="2047.851171" PMx_abs="931.138562" NOx_abs="35489.863059" fuel_abs="1270871.169676" electricity_abs="0"/>
    </tripinfo>
    <tripinfo id="pt_bus_61:0.0" depart="0.00" departLane="-540190677_1" departPos="12.10" departPosLat="0.00" departSpeed="0.00" departDelay="0.00" arrival="480.00" arrivalLane="-24779203#0_0" arrivalPos="263.70" arrivalPosLat="0.00" arrivalSpeed="5.74" duration="480.00" routeLength="2182.34" waitingTime="3.00" waitingCount="3" stopTime="216.00" timeLoss="102.62" rerouteNo="0" devices="tripinfo_pt_bus_61:0.0 routing_pt_bus_61:0.0 emissions_pt_bus_61:0.0" vType="pt_bus" speedFactor="1.00" vaporized="">
        <emissions CO_abs="10971.827276" CO2_abs="5025538.453421" HC_abs="2433.018932" PMx_abs="1134.969450" NOx_abs="43995.871391" fuel_abs="1589903.011943" electricity_abs="0"/>
    </tripinfo>
    <tripinfo id="pt_light_rail_U8:1.0" depart="0.00" departLane="26946520#0_0" departPos="109.60" departPosLat="0.00" departSpeed="0.00" departDelay="0.00" arrival="498.00" arrivalLane="40985104#4_0" arrivalPos="2135.05" arrivalPosLat="0.00" arrivalSpeed="1.00" duration="498.00" routeLength="4576.90" waitingTime="0.00" waitingCount="0" stopTime="210.00" timeLoss="123.20" rerouteNo="0" devices="tripinfo_pt_light_rail_U8:1.0 routing_pt_light_rail_U8:1.0 emissions_pt_light_rail_U8:1.0" vType="pt_light_rail" speedFactor="1.00" vaporized="">
        <emissions CO_abs="0" CO2_abs="0" HC_abs="0" PMx_abs="0" NOx_abs="0" fuel_abs="0" electricity_abs="0"/>
    </tripinfo>
    <tripinfo id="pt_bus_816:0.0" depart="0.00" departLane="29146499#2_1" departPos="12.10" departPosLat="0.00" departSpeed="0.00" departDelay="0.00" arrival="509.00" arrivalLane="294067066#10_1" arrivalPos="37.98" arrivalPosLat="0.00" arrivalSpeed="2.76" duration="509.00" routeLength="2307.06" waitingTime="71.00" waitingCount="6" stopTime="156.00" timeLoss="138.47" rerouteNo="0" devices="tripinfo_pt_bus_816:0.0 routing_pt_bus_816:0.0 emissions_pt_bus_816:0.0" vType="pt_bus" speedFactor="1.00" vaporized="">
        <emissions CO_abs="11043.327590" CO2_abs="4775866.342975" HC_abs="2528.509719" PMx_abs="1140.014797" NOx_abs="42778.986155" fuel_abs="1510869.127671" electricity_abs="0"/>
    </tripinfo>
    <tripinfo id="pt_bus_65:1.0" depart="39.00" departLane="27607327#0_1" departPos="12.10" departPosLat="0.00" departSpeed="0.00" departDelay="0.00" arrival="520.00" arrivalLane="-676917368#0_1" arrivalPos="22.31" arrivalPosLat="0.00" arrivalSpeed="0.85" duration="481.00" routeLength="1888.42" waitingTime="91.00" waitingCount="6" stopTime="152.00" timeLoss="185.24" rerouteNo="0" devices="tripinfo_pt_bus_65:1.0 routing_pt_bus_65:1.0 emissions_pt_bus_65:1.0" vType="pt_bus" speedFactor="1.00" vaporized="">
        <emissions CO_abs="10860.938233" CO2_abs="4751694.025966" HC_abs="2427.342878" PMx_abs="1118.813657" NOx_abs="42418.267827" fuel_abs="1503197.131353" electricity_abs="0"/>
    </tripinfo>
    <tripinfo id="pt_light_rail_U7:1.0" depart="15.00" departLane="26946520#0_0" departPos="109.60" departPosLat="0.00" departSpeed="0.00" departDelay="0.00" arrival="549.00" arrivalLane="40985104#4_0" arrivalPos="2135.05" arrivalPosLat="0.00" arrivalSpeed="1.00" duration="534.00" routeLength="4576.90" waitingTime="25.00" waitingCount="1" stopTime="210.00" timeLoss="159.20" rerouteNo="0" devices="tripinfo_pt_light_rail_U7:1.0 routing_pt_light_rail_U7:1.0 emissions_pt_light_rail_U7:1.0" vType="pt_light_rail" speedFactor="1.00" vaporized="">
        <emissions CO_abs="0" CO2_abs="0" HC_abs="0" PMx_abs="0" NOx_abs="0" fuel_abs="0" electricity_abs="0"/>
    </tripinfo>
    <tripinfo id="pt_light_rail_U8:0.0" depart="0.00" departLane="89344777#0_0" departPos="109.60" departPosLat="0.00" departSpeed="0.00" departDelay="0.00" arrival="558.00" arrivalLane="26946516#1_0" arrivalPos="1910.04" arrivalPosLat="0.00" arrivalSpeed="27.78" duration="558.00" routeLength="5963.27" waitingTime="0.00" waitingCount="0" stopTime="210.00" timeLoss="132.34" rerouteNo="0" devices="tripinfo_pt_light_rail_U8:0.0 routing_pt_light_rail_U8:0.0 emissions_pt_light_rail_U8:0.0" vType="pt_light_rail" speedFactor="1.00" vaporized="">
        <emissions CO_abs="0" CO2_abs="0" HC_abs="0" PMx_abs="0" NOx_abs="0" fuel_abs="0" electricity_abs="0"/>
    </tripinfo>
    <tripinfo id="pt_light_rail_U7:0.0" depart="52.00" departLane="89344777#0_0" departPos="109.60" departPosLat="0.00" departSpeed="0.00" departDelay="0.00" arrival="610.00" arrivalLane="26946516#1_0" arrivalPos="1910.04" arrivalPosLat="0.00" arrivalSpeed="27.78" duration="558.00" routeLength="5963.27" waitingTime="0.00" waitingCount="0" stopTime="210.00" timeLoss="132.34" rerouteNo="0" devices="tripinfo_pt_light_rail_U7:0.0 routing_pt_light_rail_U7:0.0 emissions_pt_light_rail_U7:0.0" vType="pt_light_rail" speedFactor="1.00" vaporized="">
        <emissions CO_abs="0" CO2_abs="0" HC_abs="0" PMx_abs="0" NOx_abs="0" fuel_abs="0" electricity_abs="0"/>
    </tripinfo>
    <tripinfo id="pt_bus_65:0.0" depart="0.00" departLane="-676917368#0_1" departPos="12.10" departPosLat="0.00" departSpeed="0.00" departDelay="0.00" arrival="627.00" arrivalLane="-27607327#1_1" arrivalPos="46.34" arrivalPosLat="0.00" arrivalSpeed="1.68" duration="627.00" routeLength="2396.96" waitingTime="103.00" waitingCount="9" stopTime="207.00" timeLoss="241.28" rerouteNo="0" devices="tripinfo_pt_bus_65:0.0 routing_pt_bus_65:0.0 emissions_pt_bus_65:0.0" vType="pt_bus" speedFactor="1.00" vaporized="">
        <emissions CO_abs="14215.937242" CO2_abs="6234424.151883" HC_abs="3168.158153" PMx_abs="1464.236325" NOx_abs="55606.808566" fuel_abs="1972257.319834" electricity_abs="0"/>
    </tripinfo>
    <tripinfo id="pt_bus_121:0.0" depart="0.00" departLane="-392589607#0_1" departPos="12.10" departPosLat="0.00" departSpeed="0.00" departDelay="0.00" arrival="658.00" arrivalLane="613655965_1" arrivalPos="255.51" arrivalPosLat="0.00" arrivalSpeed="7.01" duration="658.00" routeLength="3513.31" waitingTime="44.00" waitingCount="3" stopTime="253.00" timeLoss="147.29" rerouteNo="0" devices="tripinfo_pt_bus_121:0.0 routing_pt_bus_121:0.0 emissions_pt_bus_121:0.0" vType="pt_bus" speedFactor="1.00" vaporized="">
        <emissions CO_abs="15038.059134" CO2_abs="7007170.192304" HC_abs="3381.153479" PMx_abs="1561.735027" NOx_abs="60835.996970" fuel_abs="2216903.714377" electricity_abs="0"/>
    </tripinfo>
    <tripinfo id="pt_bus_121:1.0" depart="12.00" departLane="-207082664_1" departPos="12.10" departPosLat="0.00" departSpeed="0.00" departDelay="0.00" arrival="686.00" arrivalLane="392589607#3_1" arrivalPos="31.11" arrivalPosLat="0.00" arrivalSpeed="6.03" duration="674.00" routeLength="3629.01" waitingTime="56.00" waitingCount="2" stopTime="247.00" timeLoss="162.15" rerouteNo="0" devices="tripinfo_pt_bus_121:1.0 routing_pt_bus_121:1.0 emissions_pt_bus_121:1.0" vType="pt_bus" speedFactor="1.00" vaporized="">
        <emissions CO_abs="14813.175406" CO2_abs="6732577.977663" HC_abs="3378.290426" PMx_abs="1536.955262" NOx_abs="59022.432934" fuel_abs="2130003.133398" electricity_abs="0"/>
    </tripinfo>
    <tripinfo id="pt_bus_62:0.0" depart="0.00" departLane="27607327#0_1" departPos="12.10" departPosLat="0.00" departSpeed="0.00" departDelay="0.00" arrival="689.00" arrivalLane="-195389808#1_1" arrivalPos="142.50" arrivalPosLat="0.00" arrivalSpeed="10.60" duration="689.00" routeLength="3518.45" waitingTime="49.00" waitingCount="8" stopTime="246.00" timeLoss="179.90" rerouteNo="0" devices="tripinfo_pt_bus_62:0.0 routing_pt_bus_62:0.0 emissions_pt_bus_62:0.0" vType="pt_bus" speedFactor="1.00" vaporized="">
        <emissions CO_abs="15696.593724" CO2_abs="7297783.806743" HC_abs="3506.775213" PMx_abs="1628.252422" NOx_abs="63447.149298" fuel_abs="2308823.351272" electricity_abs="0"/>
    </tripinfo>
    <tripinfo id="pt_bus_X20:1.0" depart="39.00" departLane="268558821#1_1" departPos="12.10" departPosLat="0.00" departSpeed="0.00" departDelay="32.00" arrival="764.00" arrivalLane="-232962013#1_1" arrivalPos="13.55" arrivalPosLat="0.00" arrivalSpeed="1.12" duration="725.00" routeLength="5682.81" waitingTime="64.00" waitingCount="6" stopTime="72.00" timeLoss="146.20" rerouteNo="0" devices="tripinfo_pt_bus_X20:1.0 routing_pt_bus_X20:1.0 emissions_pt_bus_X20:1.0" vType="pt_bus" speedFactor="1.00" vaporized="">
        <emissions CO_abs="15843.993610" CO2_abs="8328867.373468" HC_abs="3575.175371" PMx_abs="1671.289609" NOx_abs="68786.774298" fuel_abs="2635421.325296" electricity_abs="0"/>
    </tripinfo>
    <tripinfo id="pt_bus_X20:0.0" depart="0.00" departLane="232962013#1_1" departPos="12.10" departPosLat="0.00" departSpeed="0.00" departDelay="0.00" arrival="791.00" arrivalLane="268558821#1_1" arrivalPos="28.71" arrivalPosLat="0.00" arrivalSpeed="2.01" duration="791.00" routeLength="7121.57" waitingTime="22.00" waitingCount="3" stopTime="133.00" timeLoss="110.52" rerouteNo="0" devices="tripinfo_pt_bus_X20:0.0 routing_pt_bus_X20:0.0 emissions_pt_bus_X20:0.0" vType="pt_bus" speedFactor="1.00" vaporized="">
        <emissions CO_abs="18359.180811" CO2_abs="10213648.075716" HC_abs="4090.464713" PMx_abs="1948.125835" NOx_abs="82569.718679" fuel_abs="3231948.638064" electricity_abs="0"/>
    </tripinfo>
    <tripinfo id="pt_bus_119:1.0" depart="0.00" departLane="569733700#3_1" departPos="12.10" departPosLat="0.00" departSpeed="0.00" departDelay="0.00" arrival="797.00" arrivalLane="268558823#1_1" arrivalPos="25.19" arrivalPosLat="0.00" arrivalSpeed="0.96" duration="797.00" routeLength="4410.99" waitingTime="10.00" waitingCount="5" stopTime="320.00" timeLoss="123.71" rerouteNo="0" devices="tripinfo_pt_bus_119:1.0 routing_pt_bus_119:1.0 emissions_pt_bus_119:1.0" vType="pt_bus" speedFactor="1.00" vaporized="">
        <emissions CO_abs="17527.903304" CO2_abs="8074911.941369" HC_abs="3987.495525" PMx_abs="1820.857200" NOx_abs="70391.095047" fuel_abs="2554714.005878" electricity_abs="0"/>
    </tripinfo>
    <tripinfo id="pt_bus_140:1.0" depart="0.00" departLane="-39761675#3_1" departPos="12.10" departPosLat="0.00" departSpeed="0.00" departDelay="0.00" arrival="829.00" arrivalLane="268558821#1_1" arrivalPos="28.71" arrivalPosLat="0.00" arrivalSpeed="2.19" duration="829.00" routeLength="4728.53" waitingTime="185.00" waitingCount="8" stopTime="181.00" timeLoss="305.02" rerouteNo="0" devices="tripinfo_pt_bus_140:1.0 routing_pt_bus_140:1.0 emissions_pt_bus_140:1.0" vType="pt_bus" speedFactor="1.00" vaporized="">
        <emissions CO_abs="18450.386210" CO2_abs="8527447.447247" HC_abs="4203.405835" PMx_abs="1917.806006" NOx_abs="74225.303505" fuel_abs="2697900.736450" electricity_abs="0"/>
    </tripinfo>
    <tripinfo id="pt_bus_119:0.0" depart="0.00" departLane="268558823#1_1" departPos="12.10" departPosLat="0.00" departSpeed="0.00" departDelay="0.00" arrival="846.00" arrivalLane="-127121917#0_1" arrivalPos="103.63" arrivalPosLat="0.00" arrivalSpeed="1.10" duration="846.00" routeLength="4303.86" waitingTime="92.00" waitingCount="10" stopTime="280.00" timeLoss="223.56" rerouteNo="0" devices="tripinfo_pt_bus_119:0.0 routing_pt_bus_119:0.0 emissions_pt_bus_119:0.0" vType="pt_bus" speedFactor="1.00" vaporized="">
        <emissions CO_abs="18729.584772" CO2_abs="8442897.342043" HC_abs="4252.323426" PMx_abs="1940.231422" NOx_abs="74304.315706" fuel_abs="2671059.969840" electricity_abs="0"/>
    </tripinfo>
    <tripinfo id="pt_light_rail_U9:0.1" depart="651.00" departLane="673171637_0" departPos="109.60" departPosLat="0.00" departSpeed="0.00" departDelay="0.00" arrival="865.00" arrivalLane="172027782#5_0" arrivalPos="1439.03" arrivalPosLat="0.00" arrivalSpeed="27.78" duration="214.00" routeLength="1862.23" waitingTime="0.00" waitingCount="0" stopTime="90.00" timeLoss="56.50" rerouteNo="0" devices="tripinfo_pt_light_rail_U9:0.1 routing_pt_light_rail_U9:0.1 emissions_pt_light_rail_U9:0.1" vType="pt_light_rail" speedFactor="1.00" vaporized="">
        <emissions CO_abs="0" CO2_abs="0" HC_abs="0" PMx_abs="0" NOx_abs="0" fuel_abs="0" electricity_abs="0"/>
    </tripinfo>
    <tripinfo id="pt_bus_140:0.0" depart="0.00" departLane="268558821#1_1" departPos="12.10" departPosLat="0.00" departSpeed="0.00" departDelay="0.00" arrival="866.00" arrivalLane="39761675#3_1" arrivalPos="87.90" arrivalPosLat="0.00" arrivalSpeed="2.32" duration="866.00" routeLength="5368.93" waitingTime="129.00" waitingCount="9" stopTime="196.00" timeLoss="273.43" rerouteNo="0" devices="tripinfo_pt_bus_140:0.0 routing_pt_bus_140:0.0 emissions_pt_bus_140:0.0" vType="pt_bus" speedFactor="1.00" vaporized="">
        <emissions CO_abs="19169.563818" CO2_abs="9116731.522513" HC_abs="4373.361495" PMx_abs="1999.749704" NOx_abs="78388.757132" fuel_abs="2884437.834040" electricity_abs="0"/>
    </tripinfo>
    <tripinfo id="pt_light_rail_U9:1.1" depart="652.00" departLane="68552415#0_0" departPos="109.60" departPosLat="0.00" departSpeed="0.00" departDelay="0.00" arrival="906.00" arrivalLane="172027783_0" arrivalPos="98.63" arrivalPosLat="0.00" arrivalSpeed="1.00" duration="254.00" routeLength="1860.56" waitingTime="0.00" waitingCount="0" stopTime="120.00" timeLoss="66.98" rerouteNo="0" devices="tripinfo_pt_light_rail_U9:1.1 routing_pt_light_rail_U9:1.1 emissions_pt_light_rail_U9:1.1" vType="pt_light_rail" speedFactor="1.00" vaporized="">
        <emissions CO_abs="0" CO2_abs="0" HC_abs="0" PMx_abs="0" NOx_abs="0" fuel_abs="0" electricity_abs="0"/>
    </tripinfo>
    <tripinfo id="pt_bus_120:1.0" depart="0.00" departLane="177336121_1" departPos="12.10" departPosLat="0.00" departSpeed="0.00" departDelay="0.00" arrival="916.00" arrivalLane="384972991#1_1" arrivalPos="28.13" arrivalPosLat="0.00" arrivalSpeed="0.61" duration="916.00" routeLength="4570.33" waitingTime="114.00" waitingCount="7" stopTime="302.00" timeLoss="252.46" rerouteNo="0" devices="tripinfo_pt_bus_120:1.0 routing_pt_bus_120:1.0 emissions_pt_bus_120:1.0" vType="pt_bus" speedFactor="1.00" vaporized="">
        <emissions CO_abs="20002.133948" CO2_abs="8901837.003557" HC_abs="4560.880580" PMx_abs="2070.285533" NOx_abs="78757.906530" fuel_abs="2816225.174172" electricity_abs="0"/>
    </tripinfo>
    <tripinfo id="pt_train_S1:1.0" depart="0.00" departLane="123444522#1_0" departPos="135.10" departPosLat="0.00" departSpeed="0.00" departDelay="0.00" arrival="947.00" arrivalLane="23163786#1_0" arrivalPos="616.75" arrivalPosLat="0.00" arrivalSpeed="7.50" duration="947.00" routeLength="10689.15" waitingTime="0.00" waitingCount="0" stopTime="180.00" timeLoss="435.15" rerouteNo="0" devices="tripinfo_pt_train_S1:1.0 routing_pt_train_S1:1.0 emissions_pt_train_S1:1.0" vType="pt_train" speedFactor="1.00" vaporized="">
        <emissions CO_abs="31565.550745" CO2_abs="16121374.072651" HC_abs="7941.341851" PMx_abs="6368.483715" NOx_abs="224590.337422" fuel_abs="5072459.511173" electricity_abs="0"/>
    </tripinfo>
    <tripinfo id="pt_train_S1:0.0" depart="0.00" departLane="292876200#2_0" departPos="135.10" departPosLat="0.00" departSpeed="0.00" departDelay="0.00" arrival="948.00" arrivalLane="180784454#2_0" arrivalPos="2403.09" arrivalPosLat="0.00" arrivalSpeed="7.00" duration="948.00" routeLength="10699.83" waitingTime="0.00" waitingCount="0" stopTime="180.00" timeLoss="438.09" rerouteNo="0" devices="tripinfo_pt_train_S1:0.0 routing_pt_train_S1:0.0 emissions_pt_train_S1:0.0" vType="pt_train" speedFactor="1.00" vaporized="">
        <emissions CO_abs="31600.304965" CO2_abs="16138980.749879" HC_abs="7956.413528" PMx_abs="6376.682066" NOx_abs="224824.704355" fuel_abs="5077999.600470" electricity_abs="0"/>
    </tripinfo>
    <tripinfo id="pt_bus_109:1.0" depart="0.00" departLane="387117388_1" departPos="1.30" departPosLat="0.00" departSpeed="0.00" departDelay="0.00" arrival="975.00" arrivalLane="-386500268#0_1" arrivalPos="71.25" arrivalPosLat="0.00" arrivalSpeed="5.41" duration="975.00" routeLength="4676.02" waitingTime="23.00" waitingCount="8" stopTime="373.00" timeLoss="140.99" rerouteNo="0" devices="tripinfo_pt_bus_109:1.0 routing_pt_bus_109:1.0 emissions_pt_bus_109:1.0" vType="pt_bus" speedFactor="1.00" vaporized="">
        <emissions CO_abs="20507.086067" CO2_abs="8880394.694262" HC_abs="4716.044046" PMx_abs="2118.610703" NOx_abs="79472.022346" fuel_abs="2809378.011104" electricity_abs="0"/>
    </tripinfo>
    <tripinfo id="pt_bus_N19:0.0" depart="142.00" departLane="268558823#1_1" departPos="12.10" departPosLat="0.00" departSpeed="0.00" departDelay="0.00" arrival="1019.00" arrivalLane="576816774#0_1" arrivalPos="239.14" arrivalPosLat="0.00" arrivalSpeed="9.42" duration="877.00" routeLength="4504.22" waitingTime="187.00" waitingCount="8" stopTime="237.00" timeLoss="309.95" rerouteNo="0" devices="tripinfo_pt_bus_N19:0.0 routing_pt_bus_N19:0.0 emissions_pt_bus_N19:0.0" vType="pt_bus" speedFactor="1.00" vaporized="">
        <emissions CO_abs="19548.007807" CO2_abs="8760726.118562" HC_abs="4459.153168" PMx_abs="2025.012936" NOx_abs="77270.931820" fuel_abs="2771607.659708" electricity_abs="0"/>
    </tripinfo>
    <tripinfo id="pt_bus_114:0.0" depart="0.00" departLane="384972991#1_1" departPos="12.10" departPosLat="0.00" departSpeed="0.00" departDelay="0.00" arrival="1025.00" arrivalLane="846930959_1" arrivalPos="96.74" arrivalPosLat="0.00" arrivalSpeed="12.28" duration="1025.00" routeLength="5664.17" waitingTime="195.00" waitingCount="11" stopTime="226.00" timeLoss="355.98" rerouteNo="0" devices="tripinfo_pt_bus_114:0.0 routing_pt_bus_114:0.0 emissions_pt_bus_114:0.0" vType="pt_bus" speedFactor="1.00" vaporized="">
        <emissions CO_abs="22726.009812" CO2_abs="10552696.120310" HC_abs="5150.766521" PMx_abs="2361.812709" NOx_abs="91703.526082" fuel_abs="3338643.115360" electricity_abs="0"/>
    </tripinfo>
    <tripinfo id="pt_bus_114:1.0" depart="0.00" departLane="-846930959_1" departPos="12.10" departPosLat="0.00" departSpeed="0.00" departDelay="0.00" arrival="1095.00" arrivalLane="384972991#1_1" arrivalPos="28.13" arrivalPosLat="0.00" arrivalSpeed="0.61" duration="1095.00" routeLength="4964.62" waitingTime="326.00" waitingCount="17" stopTime="207.00" timeLoss="501.84" rerouteNo="0" devices="tripinfo_pt_bus_114:1.0 routing_pt_bus_114:1.0 emissions_pt_bus_114:1.0" vType="pt_bus" speedFactor="1.00" vaporized="">
        <emissions CO_abs="24207.062559" CO2_abs="10638215.107709" HC_abs="5485.081937" PMx_abs="2499.712201" NOx_abs="94686.131676" fuel_abs="3365474.339417" electricity_abs="0"/>
    </tripinfo>
    <tripinfo id="pt_bus_114:2.0" depart="49.00" departLane="384972991#1_1" departPos="12.10" departPosLat="0.00" departSpeed="0.00" departDelay="43.00" arrival="1116.00" arrivalLane="846930959_1" arrivalPos="96.74" arrivalPosLat="0.00" arrivalSpeed="11.32" duration="1067.00" routeLength="5611.84" waitingTime="225.00" waitingCount="13" stopTime="236.00" timeLoss="394.45" rerouteNo="0" devices="tripinfo_pt_bus_114:2.0 routing_pt_bus_114:2.0 emissions_pt_bus_114:2.0" vType="pt_bus" speedFactor="1.00" vaporized="">
        <emissions CO_abs="23810.202411" CO2_abs="10926131.593582" HC_abs="5382.930615" PMx_abs="2470.176274" NOx_abs="95448.618089" fuel_abs="3456730.956055" electricity_abs="0"/>
    </tripinfo>
    <tripinfo id="pt_bus_106:1.0" depart="6.00" departLane="-846930959_1" departPos="12.10" departPosLat="0.00" departSpeed="0.00" departDelay="1.00" arrival="1139.00" arrivalLane="384972991#1_1" arrivalPos="28.13" arrivalPosLat="0.00" arrivalSpeed="1.01" duration="1133.00" routeLength="4964.62" waitingTime="368.00" waitingCount="17" stopTime="208.00" timeLoss="538.79" rerouteNo="0" devices="tripinfo_pt_bus_106:1.0 routing_pt_bus_106:1.0 emissions_pt_bus_106:1.0" vType="pt_bus" speedFactor="1.00" vaporized="">
        <emissions CO_abs="24924.359058" CO2_abs="10724382.647838" HC_abs="5691.373294" PMx_abs="2570.536692" NOx_abs="96298.183315" fuel_abs="3392678.293081" electricity_abs="0"/>
    </tripinfo>
    <tripinfo id="pt_bus_109:0.0" depart="0.00" departLane="156260258_1" departPos="12.10" departPosLat="0.00" departSpeed="0.00" departDelay="0.00" arrival="1146.00" arrivalLane="24508759#6_1" arrivalPos="28.21" arrivalPosLat="0.00" arrivalSpeed="5.42" duration="1146.00" routeLength="4636.43" waitingTime="194.00" waitingCount="13" stopTime="346.00" timeLoss="346.03" rerouteNo="0" devices="tripinfo_pt_bus_109:0.0 routing_pt_bus_109:0.0 emissions_pt_bus_109:0.0" vType="pt_bus" speedFactor="1.00" vaporized="">
        <emissions CO_abs="24091.950641" CO2_abs="9920571.311435" HC_abs="5554.971432" PMx_abs="2476.348795" NOx_abs="90798.804761" fuel_abs="3138255.628663" electricity_abs="0"/>
    </tripinfo>