<?xml version="1.0" encoding="UTF-8"?>

<!-- generated on 2024-01-27 18:16:48 by Eclipse SUMO GUI Version 1.19.0
<configuration xmlns:xsi="http://www.w3.org/2001/XMLSchema-instance" xsi:noNamespaceSchemaLocation="http://sumo.dlr.de/xsd/sumoConfiguration.xsd">

    <input>
        <net-file value="Without_transport\osm.net.xml"/>
        <route-files value="Without_transport\osm_pt.rou.xml"/>
        <additional-files value="Without_transport\osm_polygons.add.xml,Without_transport\basic.vType.xml,Without_transport\osm_stops.add.xml,Without_transport\osm_complete_parking_areas.add.xml,Without_transport\         osm_parking_rerouters.add.xml,Without_transport\osm_taxi_stands.add.xml,Without_transport\osm_taxi_rerouters.add.xml,Without_transport\ data.rou.xml"/>
    </input>

    <output>
        <output-prefix value="output."/>
        <summary-output value="Without_transport\summary.xml"/>
        <person-summary-output value="Without_transport\person.summary.xml"/>
        <tripinfo-output value="Without_transport\tripinfo.xml"/>
        <tripinfo-output.write-unfinished value="false"/>
        <statistic-output value="Without_transport\statistics.xml"/>
    </output>

    <time>
        <begin value="0.0"/>
        <end value="86400.0"/>
        <step-length value="1"/>
    </time>

    <processing>
        <lateral-resolution value="0.8"/>
        <ignore-junction-blocker value="60"/>
        <ignore-route-errors value="true"/>
        <collision.action value="teleport"/>
        <time-to-teleport value="300"/>
        <max-depart-delay value="900"/>
        <time-to-impatience value="120"/>
        <parking.maneuver value="true"/>
        <pedestrian.model value="striping"/>
        <pedestrian.striping.stripe-width value="0.55"/>
        <pedestrian.striping.dawdling value="0.2"/>
        <pedestrian.striping.jamtime value="60"/>
        <pedestrian.striping.jamtime.crossing value="10"/>
        <pedestrian.striping.reserve-oncoming value="0.25"/>
        <pedestrian.striping.reserve-oncoming.junctions value="0.34"/>
        <ride.stop-tolerance value="25"/>
    </processing>

    <routing>
        <routing-algorithm value="astar"/>
        <persontrip.walkfactor value="0.75"/>
        <persontrip.transfer.car-walk value="parkingAreas,allJunctions"/>
        <persontrip.transfer.taxi-walk value="parkingAreas,allJunctions"/>
        <persontrip.transfer.walk-taxi value="parkingAreas,allJunctions"/>
        <persontrip.taxi.waiting-time value="300"/>
        <device.rerouting.probability value="1"/>
        <device.rerouting.period value="300"/>
        <device.rerouting.pre-period value="300"/>
        <device.rerouting.bike-speeds value="true"/>
        <person-device.rerouting.probability value="1"/>
        <person-device.rerouting.period value="300"/>
    </routing>

    <report>
        <verbose value="true"/>
        <no-warnings value="false"/>
        <duration-log.disable value="false"/>
        <duration-log.statistics value="true"/>
        <no-step-log value="false"/>
    </report>

    <taxi_device>
        <device.taxi.dispatch-algorithm value="greedy"/>
        <device.taxi.dispatch-algorithm.output value="Without_transport\taxi.dispatch.xml"/>
        <device.taxi.dispatch-period value="60"/>
        <device.taxi.idle-algorithm value="stop"/>
        <device.taxi.idle-algorithm.output value="Without_transport\taxi.idle.xml"/>
    </taxi_device>

    <traci_server>
        <remote-port value="60967"/>
    </traci_server>

    <random_number>
        <seed value="42"/>
    </random_number>

    <gui_only>
        <gui-settings-file value="Without_transport\default-gui.xml"/>
    </gui_only>

</configuration>
-->

<tripinfos xmlns:xsi="http://www.w3.org/2001/XMLSchema-instance" xsi:noNamespaceSchemaLocation="http://sumo.dlr.de/xsd/tripinfo_file.xsd">
    <tripinfo id="p1_0" depart="0.00" departLane="444946237#0_0" departPos="1.70" departPosLat="0.00" departSpeed="0.00" departDelay="0.00" arrival="497.00" arrivalLane="26521028#0_0" arrivalPos="61.77" arrivalPosLat="-1.27" arrivalSpeed="0.26" duration="497.00" routeLength="2742.82" waitingTime="0.00" waitingCount="0" stopTime="0.00" timeLoss="31.55" rerouteNo="1" devices="tripinfo_p1_0 routing_p1_0 person_p1_0" vType="bicycle" speedFactor="1.08" vaporized=""/>
    <tripinfo id="p2_0" depart="0.00" departLane="32808438#2_0" departPos="1.70" departPosLat="0.00" departSpeed="0.00" departDelay="0.00" arrival="971.00" arrivalLane="156258609#1_0" arrivalPos="16.45" arrivalPosLat="-1.27" arrivalSpeed="0.78" duration="971.00" routeLength="4907.42" waitingTime="42.00" waitingCount="3" stopTime="0.00" timeLoss="113.12" rerouteNo="2" devices="tripinfo_p2_0 routing_p2_0 person_p2_0" vType="bicycle" speedFactor="1.03" vaporized=""/>
</tripinfos>
