<?xml version="1.0" encoding="UTF-8"?>

<!-- generated on 2025-01-29 11:46:09 by Eclipse SUMO sumo Version 1.19.0
<configuration xmlns:xsi="http://www.w3.org/2001/XMLSchema-instance" xsi:noNamespaceSchemaLocation="http://sumo.dlr.de/xsd/sumoConfiguration.xsd">

    <input>
        <net-file value="Without_transport\crr.net.xml"/>
        <route-files value="Without_transport\flows.rou.xml"/>
        <additional-files value="Without_transport\osm_polygons.add.xml,Without_transport\ basic.vType.xml,Without_transport\ additional.xml,Without_transport\ data.rou.xml"/>
    </input>

    <output>
        <output-prefix value="output."/>
        <emission-output value="emissions.xml"/>
        <summary-output value="Without_transport\summary.xml"/>
        <person-summary-output value="Without_transport\person.summary.xml"/>
        <tripinfo-output value="Without_transport\tripinfo.xml"/>
        <tripinfo-output.write-unfinished value="false"/>
        <statistic-output value="Without_transport\statistics.xml"/>
    </output>

    <processing>
        <lateral-resolution value="0.8"/>
        <ignore-junction-blocker value="60"/>
        <ignore-route-errors value="true"/>
        <collision.action value="teleport"/>
        <time-to-teleport value="300"/>
        <max-depart-delay value="900"/>
        <time-to-impatience value="120"/>
        <parking.maneuver value="true"/>
        <pedestrian.model value="striping"/>
        <pedestrian.striping.stripe-width value="0.55"/>
        <pedestrian.striping.dawdling value="0.2"/>
        <pedestrian.striping.jamtime value="60"/>
        <pedestrian.striping.jamtime.crossing value="10"/>
        <pedestrian.striping.reserve-oncoming value="0.25"/>
        <pedestrian.striping.reserve-oncoming.junctions value="0.34"/>
        <ride.stop-tolerance value="25"/>
    </processing>

    <routing>
        <routing-algorithm value="astar"/>
        <persontrip.walkfactor value="0.75"/>
        <persontrip.transfer.car-walk value="parkingAreas,allJunctions"/>
        <persontrip.transfer.taxi-walk value="parkingAreas,allJunctions"/>
        <persontrip.transfer.walk-taxi value="parkingAreas,allJunctions"/>
        <persontrip.taxi.waiting-time value="300"/>
        <device.rerouting.probability value="1"/>
        <device.rerouting.period value="300"/>
        <device.rerouting.pre-period value="300"/>
        <device.rerouting.threads value="64"/>
        <device.rerouting.bike-speeds value="true"/>
        <person-device.rerouting.probability value="1"/>
        <person-device.rerouting.period value="300"/>
    </routing>

    <report>
        <verbose value="true"/>
        <no-warnings value="true"/>
        <duration-log.disable value="false"/>
        <duration-log.statistics value="true"/>
        <no-step-log value="false"/>
        <step-log.period value="100"/>
    </report>

    <taxi_device>
        <device.taxi.dispatch-algorithm value="greedy"/>
        <device.taxi.dispatch-algorithm.output value="Without_transport\taxi.dispatch.xml"/>
        <device.taxi.dispatch-period value="60"/>
        <device.taxi.idle-algorithm value="stop"/>
        <device.taxi.idle-algorithm.output value="Without_transport\taxi.idle.xml"/>
    </taxi_device>

    <traci_server>
        <remote-port value="50514"/>
    </traci_server>

    <random_number>
        <seed value="42"/>
    </random_number>

    <gui_only>
        <gui-settings-file value="Without_transport\default-gui.xml"/>
    </gui_only>

</configuration>
-->

<tripinfos xmlns:xsi="http://www.w3.org/2001/XMLSchema-instance" xsi:noNamespaceSchemaLocation="http://sumo.dlr.de/xsd/tripinfo_file.xsd">
    <tripinfo id="pt_bus_114:5.0" depart="0.00" departLane="-390841675_1" departPos="12.10" departPosLat="0.00" departSpeed="0.00" departDelay="0.00" arrival="215.00" arrivalLane="122574095_1" arrivalPos="35.58" arrivalPosLat="0.00" arrivalSpeed="5.12" duration="215.00" routeLength="1529.70" waitingTime="0.00" waitingCount="0" stopTime="71.00" timeLoss="25.55" rerouteNo="0" devices="tripinfo_pt_bus_114:5.0 routing_pt_bus_114:5.0 emissions_pt_bus_114:5.0" vType="pt_bus" speedFactor="1.00" vaporized="">
        <emissions CO_abs="4695.693309" CO2_abs="2314071.612054" HC_abs="1078.470412" PMx_abs="492.452166" NOx_abs="19595.136310" fuel_abs="732182.705146" electricity_abs="0"/>
    </tripinfo>
    <tripinfo id="pt_light_rail_U13:0.0" depart="0.00" departLane="673171637_0" departPos="109.60" departPosLat="0.00" departSpeed="0.00" departDelay="0.00" arrival="249.00" arrivalLane="172027782#5_0" arrivalPos="1439.03" arrivalPosLat="0.00" arrivalSpeed="1.00" duration="249.00" routeLength="1862.23" waitingTime="0.00" waitingCount="0" stopTime="120.00" timeLoss="61.92" rerouteNo="0" devices="tripinfo_pt_light_rail_U13:0.0 routing_pt_light_rail_U13:0.0 emissions_pt_light_rail_U13:0.0" vType="pt_light_rail" speedFactor="1.00" vaporized="">
        <emissions CO_abs="0" CO2_abs="0" HC_abs="0" PMx_abs="0" NOx_abs="0" fuel_abs="0" electricity_abs="0"/>
    </tripinfo>
    <tripinfo id="pt_light_rail_U13:1.0" depart="0.00" departLane="68552415#0_0" departPos="109.60" departPosLat="0.00" departSpeed="0.00" departDelay="0.00" arrival="254.00" arrivalLane="172027783_0" arrivalPos="98.63" arrivalPosLat="0.00" arrivalSpeed="1.00" duration="254.00" routeLength="1860.56" waitingTime="0.00" waitingCount="0" stopTime="120.00" timeLoss="66.98" rerouteNo="0" devices="tripinfo_pt_light_rail_U13:1.0 routing_pt_light_rail_U13:1.0 emissions_pt_light_rail_U13:1.0" vType="pt_light_rail" speedFactor="1.00" vaporized="">
        <emissions CO_abs="0" CO2_abs="0" HC_abs="0" PMx_abs="0" NOx_abs="0" fuel_abs="0" electricity_abs="0"/>
    </tripinfo>
    <tripinfo id="pt_light_rail_U9:0.0" depart="51.00" departLane="673171637_0" departPos="109.60" departPosLat="0.00" departSpeed="0.00" departDelay="0.00" arrival="265.00" arrivalLane="172027782#5_0" arrivalPos="1439.03" arrivalPosLat="0.00" arrivalSpeed="27.78" duration="214.00" routeLength="1862.23" waitingTime="0.00" waitingCount="0" stopTime="90.00" timeLoss="56.50" rerouteNo="0" devices="tripinfo_pt_light_rail_U9:0.0 routing_pt_light_rail_U9:0.0 emissions_pt_light_rail_U9:0.0" vType="pt_light_rail" speedFactor="1.00" vaporized="">
        <emissions CO_abs="0" CO2_abs="0" HC_abs="0" PMx_abs="0" NOx_abs="0" fuel_abs="0" electricity_abs="0"/>
    </tripinfo>
    <tripinfo id="pt_bus_61:1.0" depart="0.00" departLane="431444776#1_0" departPos="12.10" departPosLat="0.00" departSpeed="0.00" departDelay="0.00" arrival="276.00" arrivalLane="-676917368#0_1" arrivalPos="22.31" arrivalPosLat="0.00" arrivalSpeed="1.14" duration="276.00" routeLength="1030.97" waitingTime="38.00" waitingCount="4" stopTime="119.00" timeLoss="76.25" rerouteNo="0" devices="tripinfo_pt_bus_61:1.0 routing_pt_bus_61:1.0 emissions_pt_bus_61:1.0" vType="pt_bus" speedFactor="1.00" vaporized="">
        <emissions CO_abs="6035.141646" CO2_abs="2470623.176635" HC_abs="1387.724226" PMx_abs="619.706491" NOx_abs="22678.002540" fuel_abs="781543.496248" electricity_abs="0"/>
    </tripinfo>
    <tripinfo id="pt_light_rail_U9:1.0" depart="52.00" departLane="68552415#0_0" departPos="109.60" departPosLat="0.00" departSpeed="0.00" departDelay="0.00" arrival="306.00" arrivalLane="172027783_0" arrivalPos="98.63" arrivalPosLat="0.00" arrivalSpeed="1.00" duration="254.00" routeLength="1860.56" waitingTime="0.00" waitingCount="0" stopTime="120.00" timeLoss="66.98" rerouteNo="0" devices="tripinfo_pt_light_rail_U9:1.0 routing_pt_light_rail_U9:1.0 emissions_pt_light_rail_U9:1.0" vType="pt_light_rail" speedFactor="1.00" vaporized="">
        <emissions CO_abs="0" CO2_abs="0" HC_abs="0" PMx_abs="0" NOx_abs="0" fuel_abs="0" electricity_abs="0"/>
    </tripinfo>
    <tripinfo id="pt_train_RE_5:0.0" depart="0.00" departLane="156199094#3_0" departPos="135.10" departPosLat="0.00" departSpeed="0.00" departDelay="0.00" arrival="317.00" arrivalLane="48316096#2_0" arrivalPos="589.00" arrivalPosLat="0.00" arrivalSpeed="7.75" duration="317.00" routeLength="4125.58" waitingTime="0.00" waitingCount="0" stopTime="60.00" timeLoss="158.59" rerouteNo="0" devices="tripinfo_pt_train_RE_5:0.0 routing_pt_train_RE_5:0.0 emissions_pt_train_RE_5:0.0" vType="pt_train" speedFactor="1.00" vaporized="">
        <emissions CO_abs="11663.485655" CO2_abs="5896211.708190" HC_abs="2772.382452" PMx_abs="2314.427146" NOx_abs="82412.669696" fuel_abs="1855184.126634" electricity_abs="0"/>
    </tripinfo>
    <tripinfo id="p0_0" depart="183.00" departLane="393402219#3_1" departPos="3.33" departPosLat="0.00" departSpeed="0.00" departDelay="0.00" arrival="367.00" arrivalLane="26520921#3_1" arrivalPos="8.71" arrivalPosLat="0.00" arrivalSpeed="1.30" duration="184.00" routeLength="1256.98" waitingTime="43.00" waitingCount="1" stopTime="0.00" timeLoss="69.62" rerouteNo="1" devices="tripinfo_p0_0 routing_p0_0 emissions_p0_0 person_p0_0" vType="motorcycle" speedFactor="0.82" vaporized="">
        <emissions CO_abs="20627.094907" CO2_abs="440495.474660" HC_abs="86.620181" PMx_abs="27.371413" NOx_abs="97.844546" fuel_abs="140516.044889" electricity_abs="0"/>
    </tripinfo>
    <tripinfo id="pt_bus_816:1.0" depart="0.00" departLane="-294067066#1_1" departPos="12.10" departPosLat="0.00" departSpeed="0.00" departDelay="0.00" arrival="417.00" arrivalLane="29146499#2_1" arrivalPos="40.22" arrivalPosLat="0.00" arrivalSpeed="4.16" duration="417.00" routeLength="2061.50" waitingTime="47.00" waitingCount="3" stopTime="117.00" timeLoss="105.83" rerouteNo="0" devices="tripinfo_pt_bus_816:1.0 routing_pt_bus_816:1.0 emissions_pt_bus_816:1.0" vType="pt_bus" speedFactor="1.00" vaporized="">
        <emissions CO_abs="9038.877520" CO2_abs="4039395.613353" HC_abs="2058.991647" PMx_abs="935.862860" NOx_abs="35675.938100" fuel_abs="1277926.188162" electricity_abs="0"/>
    </tripinfo>
    <tripinfo id="pt_bus_61:0.0" depart="0.00" departLane="-540190677_1" departPos="12.10" departPosLat="0.00" departSpeed="0.00" departDelay="0.00" arrival="480.00" arrivalLane="-24779203#0_0" arrivalPos="263.70" arrivalPosLat="0.00" arrivalSpeed="4.86" duration="480.00" routeLength="2182.34" waitingTime="5.00" waitingCount="3" stopTime="215.00" timeLoss="103.27" rerouteNo="0" devices="tripinfo_pt_bus_61:0.0 routing_pt_bus_61:0.0 emissions_pt_bus_61:0.0" vType="pt_bus" speedFactor="1.00" vaporized="">
        <emissions CO_abs="10977.877033" CO2_abs="5015624.808746" HC_abs="2439.934082" PMx_abs="1135.618082" NOx_abs="43950.120580" fuel_abs="1586766.164811" electricity_abs="0"/>
    </tripinfo>
    <tripinfo id="pt_light_rail_U8:1.0" depart="0.00" departLane="26946520#0_0" departPos="109.60" departPosLat="0.00" departSpeed="0.00" departDelay="0.00" arrival="498.00" arrivalLane="40985104#4_0" arrivalPos="2135.05" arrivalPosLat="0.00" arrivalSpeed="1.00" duration="498.00" routeLength="4576.90" waitingTime="0.00" waitingCount="0" stopTime="210.00" timeLoss="123.20" rerouteNo="0" devices="tripinfo_pt_light_rail_U8:1.0 routing_pt_light_rail_U8:1.0 emissions_pt_light_rail_U8:1.0" vType="pt_light_rail" speedFactor="1.00" vaporized="">
        <emissions CO_abs="0" CO2_abs="0" HC_abs="0" PMx_abs="0" NOx_abs="0" fuel_abs="0" electricity_abs="0"/>
    </tripinfo>
    <tripinfo id="pt_bus_816:0.0" depart="0.00" departLane="29146499#2_1" departPos="12.10" departPosLat="0.00" departSpeed="0.00" departDelay="0.00" arrival="509.00" arrivalLane="294067066#10_1" arrivalPos="37.98" arrivalPosLat="0.00" arrivalSpeed="2.70" duration="509.00" routeLength="2307.06" waitingTime="68.00" waitingCount="4" stopTime="158.00" timeLoss="136.87" rerouteNo="0" devices="tripinfo_pt_bus_816:0.0 routing_pt_bus_816:0.0 emissions_pt_bus_816:0.0" vType="pt_bus" speedFactor="1.00" vaporized="">
        <emissions CO_abs="11009.325175" CO2_abs="4766922.706395" HC_abs="2519.066519" PMx_abs="1136.550501" NOx_abs="42677.983562" fuel_abs="1508040.740827" electricity_abs="0"/>
    </tripinfo>
    <tripinfo id="pt_bus_65:1.0" depart="39.00" departLane="27607327#0_1" departPos="12.10" departPosLat="0.00" departSpeed="0.00" departDelay="0.00" arrival="520.00" arrivalLane="-676917368#0_1" arrivalPos="22.31" arrivalPosLat="0.00" arrivalSpeed="0.81" duration="481.00" routeLength="1888.42" waitingTime="94.00" waitingCount="7" stopTime="150.00" timeLoss="186.16" rerouteNo="0" devices="tripinfo_pt_bus_65:1.0 routing_pt_bus_65:1.0 emissions_pt_bus_65:1.0" vType="pt_bus" speedFactor="1.00" vaporized="">
        <emissions CO_abs="10846.964415" CO2_abs="4778867.682533" HC_abs="2414.372266" PMx_abs="1117.621592" NOx_abs="42541.483224" fuel_abs="1511799.120539" electricity_abs="0"/>
    </tripinfo>
    <tripinfo id="pt_light_rail_U7:1.0" depart="15.00" departLane="26946520#0_0" departPos="109.60" departPosLat="0.00" departSpeed="0.00" departDelay="0.00" arrival="549.00" arrivalLane="40985104#4_0" arrivalPos="2135.05" arrivalPosLat="0.00" arrivalSpeed="1.00" duration="534.00" routeLength="4576.90" waitingTime="25.00" waitingCount="1" stopTime="210.00" timeLoss="159.20" rerouteNo="0" devices="tripinfo_pt_light_rail_U7:1.0 routing_pt_light_rail_U7:1.0 emissions_pt_light_rail_U7:1.0" vType="pt_light_rail" speedFactor="1.00" vaporized="">
        <emissions CO_abs="0" CO2_abs="0" HC_abs="0" PMx_abs="0" NOx_abs="0" fuel_abs="0" electricity_abs="0"/>
    </tripinfo>
    <tripinfo id="pt_light_rail_U8:0.0" depart="0.00" departLane="89344777#0_0" departPos="109.60" departPosLat="0.00" departSpeed="0.00" departDelay="0.00" arrival="558.00" arrivalLane="26946516#1_0" arrivalPos="1910.04" arrivalPosLat="0.00" arrivalSpeed="27.78" duration="558.00" routeLength="5963.27" waitingTime="0.00" waitingCount="0" stopTime="210.00" timeLoss="132.34" rerouteNo="0" devices="tripinfo_pt_light_rail_U8:0.0 routing_pt_light_rail_U8:0.0 emissions_pt_light_rail_U8:0.0" vType="pt_light_rail" speedFactor="1.00" vaporized="">
        <emissions CO_abs="0" CO2_abs="0" HC_abs="0" PMx_abs="0" NOx_abs="0" fuel_abs="0" electricity_abs="0"/>
    </tripinfo>
    <tripinfo id="pt_light_rail_U7:0.0" depart="52.00" departLane="89344777#0_0" departPos="109.60" departPosLat="0.00" departSpeed="0.00" departDelay="0.00" arrival="610.00" arrivalLane="26946516#1_0" arrivalPos="1910.04" arrivalPosLat="0.00" arrivalSpeed="27.78" duration="558.00" routeLength="5963.27" waitingTime="0.00" waitingCount="0" stopTime="210.00" timeLoss="132.34" rerouteNo="0" devices="tripinfo_pt_light_rail_U7:0.0 routing_pt_light_rail_U7:0.0 emissions_pt_light_rail_U7:0.0" vType="pt_light_rail" speedFactor="1.00" vaporized="">
        <emissions CO_abs="0" CO2_abs="0" HC_abs="0" PMx_abs="0" NOx_abs="0" fuel_abs="0" electricity_abs="0"/>
    </tripinfo>
    <tripinfo id="pt_bus_65:0.0" depart="0.00" departLane="-676917368#0_1" departPos="12.10" departPosLat="0.00" departSpeed="0.00" departDelay="0.00" arrival="627.00" arrivalLane="-27607327#1_1" arrivalPos="46.34" arrivalPosLat="0.00" arrivalSpeed="2.02" duration="627.00" routeLength="2396.96" waitingTime="106.00" waitingCount="10" stopTime="207.00" timeLoss="239.65" rerouteNo="0" devices="tripinfo_pt_bus_65:0.0 routing_pt_bus_65:0.0 emissions_pt_bus_65:0.0" vType="pt_bus" speedFactor="1.00" vaporized="">
        <emissions CO_abs="14287.431781" CO2_abs="6252531.911613" HC_abs="3187.105132" PMx_abs="1471.443584" NOx_abs="55816.838045" fuel_abs="1977982.757058" electricity_abs="0"/>
    </tripinfo>
    <tripinfo id="pt_bus_121:0.0" depart="0.00" departLane="-392589607#0_1" departPos="12.10" departPosLat="0.00" departSpeed="0.00" departDelay="0.00" arrival="658.00" arrivalLane="613655965_1" arrivalPos="255.51" arrivalPosLat="0.00" arrivalSpeed="6.90" duration="658.00" routeLength="3513.31" waitingTime="44.00" waitingCount="3" stopTime="253.00" timeLoss="147.29" rerouteNo="0" devices="tripinfo_pt_bus_121:0.0 routing_pt_bus_121:0.0 emissions_pt_bus_121:0.0" vType="pt_bus" speedFactor="1.00" vaporized="">
        <emissions CO_abs="14922.738183" CO2_abs="6943149.862473" HC_abs="3356.289001" PMx_abs="1549.555024" NOx_abs="60316.990271" fuel_abs="2196646.178880" electricity_abs="0"/>
    </tripinfo>
    <tripinfo id="pt_bus_121:1.0" depart="12.00" departLane="-207082664_1" departPos="12.10" departPosLat="0.00" departSpeed="0.00" departDelay="0.00" arrival="686.00" arrivalLane="392589607#3_1" arrivalPos="31.11" arrivalPosLat="0.00" arrivalSpeed="5.66" duration="674.00" routeLength="3629.01" waitingTime="57.00" waitingCount="3" stopTime="244.00" timeLoss="165.16" rerouteNo="0" devices="tripinfo_pt_bus_121:1.0 routing_pt_bus_121:1.0 emissions_pt_bus_121:1.0" vType="pt_bus" speedFactor="1.00" vaporized="">
        <emissions CO_abs="14798.566387" CO2_abs="6723135.894163" HC_abs="3368.977848" PMx_abs="1534.980744" NOx_abs="58957.705313" fuel_abs="2127010.168361" electricity_abs="0"/>
    </tripinfo>
    <tripinfo id="pt_bus_62:0.0" depart="0.00" departLane="27607327#0_1" departPos="12.10" departPosLat="0.00" departSpeed="0.00" departDelay="0.00" arrival="689.00" arrivalLane="-195389808#1_1" arrivalPos="142.50" arrivalPosLat="0.00" arrivalSpeed="10.81" duration="689.00" routeLength="3518.45" waitingTime="50.00" waitingCount="8" stopTime="247.00" timeLoss="178.34" rerouteNo="0" devices="tripinfo_pt_bus_62:0.0 routing_pt_bus_62:0.0 emissions_pt_bus_62:0.0" vType="pt_bus" speedFactor="1.00" vaporized="">
        <emissions CO_abs="15625.873635" CO2_abs="7261958.087679" HC_abs="3493.758842" PMx_abs="1621.017461" NOx_abs="63143.185279" fuel_abs="2297490.125060" electricity_abs="0"/>
    </tripinfo>
    <tripinfo id="pt_bus_X20:0.0" depart="0.00" departLane="232962013#1_1" departPos="12.10" departPosLat="0.00" departSpeed="0.00" departDelay="0.00" arrival="791.00" arrivalLane="268558821#1_1" arrivalPos="28.71" arrivalPosLat="0.00" arrivalSpeed="2.13" duration="791.00" routeLength="7121.57" waitingTime="21.00" waitingCount="3" stopTime="131.00" timeLoss="112.27" rerouteNo="0" devices="tripinfo_pt_bus_X20:0.0 routing_pt_bus_X20:0.0 emissions_pt_bus_X20:0.0" vType="pt_bus" speedFactor="1.00" vaporized="">
        <emissions CO_abs="18442.781589" CO2_abs="10263476.515028" HC_abs="4121.362561" PMx_abs="1957.873812" NOx_abs="82946.995995" fuel_abs="3247726.737855" electricity_abs="0"/>
    </tripinfo>
    <tripinfo id="pt_bus_119:1.0" depart="0.00" departLane="569733700#3_1" departPos="12.10" departPosLat="0.00" departSpeed="0.00" departDelay="0.00" arrival="797.00" arrivalLane="268558823#1_1" arrivalPos="25.19" arrivalPosLat="0.00" arrivalSpeed="0.75" duration="797.00" routeLength="4410.99" waitingTime="8.00" waitingCount="3" stopTime="325.00" timeLoss="119.48" rerouteNo="0" devices="tripinfo_pt_bus_119:1.0 routing_pt_bus_119:1.0 emissions_pt_bus_119:1.0" vType="pt_bus" speedFactor="1.00" vaporized="">
        <emissions CO_abs="17527.855261" CO2_abs="8034776.137637" HC_abs="3998.779324" PMx_abs="1820.517251" NOx_abs="70177.360138" fuel_abs="2542009.844959" electricity_abs="0"/>
    </tripinfo>
    <tripinfo id="pt_bus_140:1.0" depart="0.00" departLane="-39761675#3_1" departPos="12.10" departPosLat="0.00" departSpeed="0.00" departDelay="0.00" arrival="829.00" arrivalLane="268558821#1_1" arrivalPos="28.71" arrivalPosLat="0.00" arrivalSpeed="1.82" duration="829.00" routeLength="4728.53" waitingTime="188.00" waitingCount="9" stopTime="184.00" timeLoss="302.23" rerouteNo="0" devices="tripinfo_pt_bus_140:1.0 routing_pt_bus_140:1.0 emissions_pt_bus_140:1.0" vType="pt_bus" speedFactor="1.00" vaporized="">
        <emissions CO_abs="18491.032760" CO2_abs="8549577.576351" HC_abs="4218.510676" PMx_abs="1922.495288" NOx_abs="74398.205352" fuel_abs="2704908.059502" electricity_abs="0"/>
    </tripinfo>
    <tripinfo id="pt_bus_119:0.0" depart="0.00" departLane="268558823#1_1" departPos="12.10" departPosLat="0.00" departSpeed="0.00" departDelay="0.00" arrival="846.00" arrivalLane="-127121917#0_1" arrivalPos="103.63" arrivalPosLat="0.00" arrivalSpeed="0.95" duration="846.00" routeLength="4303.86" waitingTime="93.00" waitingCount="9" stopTime="277.00" timeLoss="226.54" rerouteNo="0" devices="tripinfo_pt_bus_119:0.0 routing_pt_bus_119:0.0 emissions_pt_bus_119:0.0" vType="pt_bus" speedFactor="1.00" vaporized="">
        <emissions CO_abs="18781.875190" CO2_abs="8516041.793441" HC_abs="4253.538071" PMx_abs="1946.274497" NOx_abs="74771.565971" fuel_abs="2694211.119164" electricity_abs="0"/>
    </tripinfo>
    <tripinfo id="p7_0" depart="194.00" departLane="1257943745#0_1" departPos="2.48" departPosLat="0.00" departSpeed="0.00" departDelay="0.00" arrival="863.00" arrivalLane="695712555#2_1" arrivalPos="10.82" arrivalPosLat="-1.27" arrivalSpeed="0.09" duration="669.00" routeLength="3831.85" waitingTime="9.00" waitingCount="3" stopTime="0.00" timeLoss="57.34" rerouteNo="2" devices="tripinfo_p7_0 routing_p7_0 emissions_p7_0 person_p7_0" vType="bicycle" speedFactor="1.16" vaporized="">
        <emissions CO_abs="0" CO2_abs="0" HC_abs="0" PMx_abs="0" NOx_abs="0" fuel_abs="0" electricity_abs="0"/>
    </tripinfo>
    <tripinfo id="pt_light_rail_U9:0.1" depart="651.00" departLane="673171637_0" departPos="109.60" departPosLat="0.00" departSpeed="0.00" departDelay="0.00" arrival="865.00" arrivalLane="172027782#5_0" arrivalPos="1439.03" arrivalPosLat="0.00" arrivalSpeed="27.78" duration="214.00" routeLength="1862.23" waitingTime="0.00" waitingCount="0" stopTime="90.00" timeLoss="56.50" rerouteNo="0" devices="tripinfo_pt_light_rail_U9:0.1 routing_pt_light_rail_U9:0.1 emissions_pt_light_rail_U9:0.1" vType="pt_light_rail" speedFactor="1.00" vaporized="">
        <emissions CO_abs="0" CO2_abs="0" HC_abs="0" PMx_abs="0" NOx_abs="0" fuel_abs="0" electricity_abs="0"/>
    </tripinfo>
    <tripinfo id="pt_bus_140:0.0" depart="0.00" departLane="268558821#1_1" departPos="12.10" departPosLat="0.00" departSpeed="0.00" departDelay="0.00" arrival="866.00" arrivalLane="39761675#3_1" arrivalPos="87.90" arrivalPosLat="0.00" arrivalSpeed="3.02" duration="866.00" routeLength="5368.93" waitingTime="137.00" waitingCount="10" stopTime="192.00" timeLoss="276.32" rerouteNo="0" devices="tripinfo_pt_bus_140:0.0 routing_pt_bus_140:0.0 emissions_pt_bus_140:0.0" vType="pt_bus" speedFactor="1.00" vaporized="">
        <emissions CO_abs="19245.397110" CO2_abs="9161509.408706" HC_abs="4387.498017" PMx_abs="2007.687595" NOx_abs="78746.120866" fuel_abs="2898605.747849" electricity_abs="0"/>
    </tripinfo>
    <tripinfo id="pt_light_rail_U9:1.1" depart="652.00" departLane="68552415#0_0" departPos="109.60" departPosLat="0.00" departSpeed="0.00" departDelay="0.00" arrival="906.00" arrivalLane="172027783_0" arrivalPos="98.63" arrivalPosLat="0.00" arrivalSpeed="1.00" duration="254.00" routeLength="1860.56" waitingTime="0.00" waitingCount="0" stopTime="120.00" timeLoss="66.98" rerouteNo="0" devices="tripinfo_pt_light_rail_U9:1.1 routing_pt_light_rail_U9:1.1 emissions_pt_light_rail_U9:1.1" vType="pt_light_rail" speedFactor="1.00" vaporized="">
        <emissions CO_abs="0" CO2_abs="0" HC_abs="0" PMx_abs="0" NOx_abs="0" fuel_abs="0" electricity_abs="0"/>
    </tripinfo>
    <tripinfo id="pt_bus_120:1.0" depart="0.00" departLane="177336121_1" departPos="12.10" departPosLat="0.00" departSpeed="0.00" departDelay="0.00" arrival="916.00" arrivalLane="384972991#1_1" arrivalPos="28.13" arrivalPosLat="0.00" arrivalSpeed="0.72" duration="916.00" routeLength="4570.33" waitingTime="112.00" waitingCount="8" stopTime="303.00" timeLoss="251.63" rerouteNo="0" devices="tripinfo_pt_bus_120:1.0 routing_pt_bus_120:1.0 emissions_pt_bus_120:1.0" vType="pt_bus" speedFactor="1.00" vaporized="">
        <emissions CO_abs="19857.817122" CO2_abs="8845263.081030" HC_abs="4520.540275" PMx_abs="2055.072759" NOx_abs="78236.953783" fuel_abs="2798324.316983" electricity_abs="0"/>
    </tripinfo>
    <tripinfo id="p6_0" depart="0.00" departLane="36989717#1_1" departPos="5.10" departPosLat="0.00" departSpeed="0.00" departDelay="0.00" arrival="919.00" arrivalLane="-183419042#3_1" arrivalPos="23.53" arrivalPosLat="0.00" arrivalSpeed="1.11" duration="919.00" routeLength="8496.38" waitingTime="369.00" waitingCount="4" stopTime="0.00" timeLoss="420.30" rerouteNo="1" devices="tripinfo_p6_0 routing_p6_0 emissions_p6_0 person_p6_0" vType="passenger3" speedFactor="0.99" vaporized="">
        <emissions CO_abs="75386.233998" CO2_abs="2618211.876212" HC_abs="400.031046" PMx_abs="48.763145" NOx_abs="1041.376883" fuel_abs="835111.059199" electricity_abs="0"/>
    </tripinfo>
    <tripinfo id="pt_train_S1:1.0" depart="0.00" departLane="123444522#1_0" departPos="135.10" departPosLat="0.00" departSpeed="0.00" departDelay="0.00" arrival="947.00" arrivalLane="23163786#1_0" arrivalPos="616.75" arrivalPosLat="0.00" arrivalSpeed="7.50" duration="947.00" routeLength="10689.15" waitingTime="0.00" waitingCount="0" stopTime="180.00" timeLoss="435.15" rerouteNo="0" devices="tripinfo_pt_train_S1:1.0 routing_pt_train_S1:1.0 emissions_pt_train_S1:1.0" vType="pt_train" speedFactor="1.00" vaporized="">
        <emissions CO_abs="31565.550745" CO2_abs="16121374.072651" HC_abs="7941.341851" PMx_abs="6368.483715" NOx_abs="224590.337422" fuel_abs="5072459.511173" electricity_abs="0"/>
    </tripinfo>
    <tripinfo id="pt_train_S1:0.0" depart="0.00" departLane="292876200#2_0" departPos="135.10" departPosLat="0.00" departSpeed="0.00" departDelay="0.00" arrival="948.00" arrivalLane="180784454#2_0" arrivalPos="2403.09" arrivalPosLat="0.00" arrivalSpeed="7.00" duration="948.00" routeLength="10699.83" waitingTime="0.00" waitingCount="0" stopTime="180.00" timeLoss="438.09" rerouteNo="0" devices="tripinfo_pt_train_S1:0.0 routing_pt_train_S1:0.0 emissions_pt_train_S1:0.0" vType="pt_train" speedFactor="1.00" vaporized="">
        <emissions CO_abs="31600.304965" CO2_abs="16138980.749879" HC_abs="7956.413528" PMx_abs="6376.682066" NOx_abs="224824.704355" fuel_abs="5077999.600470" electricity_abs="0"/>
    </tripinfo>
    <tripinfo id="pt_bus_109:1.0" depart="0.00" departLane="387117388_1" departPos="1.30" departPosLat="0.00" departSpeed="0.00" departDelay="0.00" arrival="974.00" arrivalLane="-386500268#0_1" arrivalPos="71.25" arrivalPosLat="0.00" arrivalSpeed="5.02" duration="974.00" routeLength="4676.02" waitingTime="19.00" waitingCount="6" stopTime="375.00" timeLoss="139.10" rerouteNo="0" devices="tripinfo_pt_bus_109:1.0 routing_pt_bus_109:1.0 emissions_pt_bus_109:1.0" vType="pt_bus" speedFactor="1.00" vaporized="">
        <emissions CO_abs="20601.574734" CO2_abs="8940368.663569" HC_abs="4740.220573" PMx_abs="2129.033958" NOx_abs="79929.951860" fuel_abs="2828360.623081" electricity_abs="0"/>
    </tripinfo>
    <tripinfo id="pt_bus_X20:1.0" depart="39.00" departLane="268558821#1_1" departPos="12.10" departPosLat="0.00" departSpeed="0.00" departDelay="32.00" arrival="1011.00" arrivalLane="-232962013#1_1" arrivalPos="13.55" arrivalPosLat="0.00" arrivalSpeed="1.04" duration="972.00" routeLength="5682.81" waitingTime="295.00" waitingCount="12" stopTime="50.00" timeLoss="415.13" rerouteNo="0" devices="tripinfo_pt_bus_X20:1.0 routing_pt_bus_X20:1.0 emissions_pt_bus_X20:1.0" vType="pt_bus" speedFactor="1.00" vaporized="">
        <emissions CO_abs="20862.767147" CO2_abs="9721143.507834" HC_abs="4775.798347" PMx_abs="2172.107602" NOx_abs="84293.585650" fuel_abs="3075607.617491" electricity_abs="0"/>
    </tripinfo>
    <tripinfo id="pt_bus_N19:0.0" depart="165.00" departLane="268558823#1_1" departPos="12.10" departPosLat="0.00" departSpeed="0.00" departDelay="23.00" arrival="1019.00" arrivalLane="576816774#0_1" arrivalPos="239.14" arrivalPosLat="0.00" arrivalSpeed="9.93" duration="854.00" routeLength="4504.22" waitingTime="167.00" waitingCount="10" stopTime="227.00" timeLoss="296.48" rerouteNo="0" devices="tripinfo_pt_bus_N19:0.0 routing_pt_bus_N19:0.0 emissions_pt_bus_N19:0.0" vType="pt_bus" speedFactor="1.00" vaporized="">
        <emissions CO_abs="19050.559687" CO2_abs="8616156.900798" HC_abs="4340.506043" PMx_abs="1975.222161" NOx_abs="75700.813371" fuel_abs="2725896.633216" electricity_abs="0"/>
    </tripinfo>
    <tripinfo id="pt_bus_114:0.0" depart="0.00" departLane="384972991#1_1" departPos="12.10" departPosLat="0.00" departSpeed="0.00" departDelay="0.00" arrival="1025.00" arrivalLane="846930959_1" arrivalPos="96.74" arrivalPosLat="0.00" arrivalSpeed="12.28" duration="1025.00" routeLength="5664.17" waitingTime="234.00" waitingCount="13" stopTime="189.00" timeLoss="392.61" rerouteNo="0" devices="tripinfo_pt_bus_114:0.0 routing_pt_bus_114:0.0 emissions_pt_bus_114:0.0" vType="pt_bus" speedFactor="1.00" vaporized="">
        <emissions CO_abs="22992.773976" CO2_abs="10658622.095964" HC_abs="5222.328718" PMx_abs="2389.775432" NOx_abs="92676.937168" fuel_abs="3372157.815192" electricity_abs="0"/>
    </tripinfo>
    <tripinfo id="p8_0" depart="752.00" departLane="-290577631_1" departPos="29.45" departPosLat="0.00" departSpeed="0.00" departDelay="0.00" arrival="1044.00" arrivalLane="23320633#2_1" arrivalPos="3.86" arrivalPosLat="-1.15" arrivalSpeed="0.11" duration="292.00" routeLength="1692.95" waitingTime="82.00" waitingCount="2" stopTime="0.00" timeLoss="126.84" rerouteNo="1" devices="tripinfo_p8_0 routing_p8_0 emissions_p8_0 person_p8_0" vType="motorcycle" speedFactor="0.94" vaporized="">
        <emissions CO_abs="35156.320973" CO2_abs="665160.932310" HC_abs="144.014059" PMx_abs="44.369725" NOx_abs="148.695143" fuel_abs="212184.105635" electricity_abs="0"/>
    </tripinfo>
    <tripinfo id="p2_0" depart="0.00" departLane="54883366#2_1" departPos="1.70" departPosLat="0.00" departSpeed="0.00" departDelay="0.00" arrival="1048.00" arrivalLane="-127314436#0_1" arrivalPos="8.48" arrivalPosLat="-1.27" arrivalSpeed="0.15" duration="1048.00" routeLength="4984.15" waitingTime="85.00" waitingCount="2" stopTime="0.00" timeLoss="151.85" rerouteNo="1" devices="tripinfo_p2_0 routing_p2_0 emissions_p2_0 person_p2_0" vType="bicycle" speedFactor="1.00" vaporized="">
        <emissions CO_abs="0" CO2_abs="0" HC_abs="0" PMx_abs="0" NOx_abs="0" fuel_abs="0" electricity_abs="0"/>
    </tripinfo>