<?xml version="1.0" encoding="UTF-8"?>

<!-- generated on 2025-02-05 11:41:06 by Eclipse SUMO sumo Version 1.19.0
<configuration xmlns:xsi="http://www.w3.org/2001/XMLSchema-instance" xsi:noNamespaceSchemaLocation="http://sumo.dlr.de/xsd/sumoConfiguration.xsd">

    <input>
        <net-file value="Without_transport\crr.net.xml"/>
        <route-files value="Without_transport\flows.rou.xml"/>
        <additional-files value="Without_transport\osm_polygons.add.xml,Without_transport\ basic.vType.xml,Without_transport\ additional.xml,Without_transport\ data.rou.xml"/>
    </input>

    <output>
        <output-prefix value="output."/>
        <emission-output value="emissions.xml"/>
        <summary-output value="Without_transport\summary.xml"/>
        <person-summary-output value="Without_transport\person.summary.xml"/>
        <tripinfo-output value="Without_transport\tripinfo.xml"/>
        <tripinfo-output.write-unfinished value="false"/>
        <statistic-output value="Without_transport\statistics.xml"/>
    </output>

    <processing>
        <lateral-resolution value="0.8"/>
        <ignore-junction-blocker value="60"/>
        <ignore-route-errors value="true"/>
        <collision.action value="teleport"/>
        <time-to-teleport value="300"/>
        <max-depart-delay value="900"/>
        <time-to-impatience value="120"/>
        <parking.maneuver value="true"/>
        <pedestrian.model value="striping"/>
        <pedestrian.striping.stripe-width value="0.55"/>
        <pedestrian.striping.dawdling value="0.2"/>
        <pedestrian.striping.jamtime value="60"/>
        <pedestrian.striping.jamtime.crossing value="10"/>
        <pedestrian.striping.reserve-oncoming value="0.25"/>
        <pedestrian.striping.reserve-oncoming.junctions value="0.34"/>
        <ride.stop-tolerance value="25"/>
    </processing>

    <routing>
        <routing-algorithm value="astar"/>
        <persontrip.walkfactor value="0.75"/>
        <persontrip.transfer.car-walk value="parkingAreas,allJunctions"/>
        <persontrip.transfer.taxi-walk value="parkingAreas,allJunctions"/>
        <persontrip.transfer.walk-taxi value="parkingAreas,allJunctions"/>
        <persontrip.taxi.waiting-time value="300"/>
        <device.rerouting.probability value="1"/>
        <device.rerouting.period value="300"/>
        <device.rerouting.pre-period value="300"/>
        <device.rerouting.threads value="64"/>
        <device.rerouting.bike-speeds value="true"/>
        <person-device.rerouting.probability value="1"/>
        <person-device.rerouting.period value="300"/>
    </routing>

    <report>
        <verbose value="true"/>
        <no-warnings value="true"/>
        <duration-log.disable value="false"/>
        <duration-log.statistics value="true"/>
        <no-step-log value="false"/>
        <step-log.period value="100"/>
    </report>

    <taxi_device>
        <device.taxi.dispatch-algorithm value="greedy"/>
        <device.taxi.dispatch-algorithm.output value="Without_transport\taxi.dispatch.xml"/>
        <device.taxi.dispatch-period value="60"/>
        <device.taxi.idle-algorithm value="stop"/>
        <device.taxi.idle-algorithm.output value="Without_transport\taxi.idle.xml"/>
    </taxi_device>

    <traci_server>
        <remote-port value="51910"/>
    </traci_server>

    <random_number>
        <seed value="42"/>
    </random_number>

    <gui_only>
        <gui-settings-file value="Without_transport\default-gui.xml"/>
    </gui_only>

</configuration>
-->

<tripinfos xmlns:xsi="http://www.w3.org/2001/XMLSchema-instance" xsi:noNamespaceSchemaLocation="http://sumo.dlr.de/xsd/tripinfo_file.xsd">
    <tripinfo id="pt_bus_114:5.0" depart="0.00" departLane="-390841675_1" departPos="12.10" departPosLat="0.00" departSpeed="0.00" departDelay="0.00" arri-->

<tripinfos xmlns:xsi="http://www.w3.org/2001/XMLSchema-instance" xsi:noNamespaceSchemaLocation="http://sumo.dlr.de/xsd/tripinfo_file.xsd">
</tripinfos>
tingCount="1" stopTime="67.00" timeLoss="28.28" rerouteNo="0" devices="tripinfo_pt_bus_114:5.0 routing_pt_bus_114:5.0 emissions_pt_bus_114:5.0" vType="pt_bus" speedFactor="1.00" vaporized="">
        <emissions CO_abs="4673.570092" CO2_abs="2292196.850315" HC_abs="1075.638871" PMx_abs="489.986403" NOx_abs="19445.448045" fuel_abs="725259.402179" electricity_abs="0"/>
    </tripinfo>
    <tripinfo id="pt_light_rail_U13:0.0" depart="0.00" departLane="673171637_0" departPos="109.60" departPosLat="0.00" departSpeed="0.00" departDelay="0.00" arrival="249.00" arrivalLane="172027782#5_0" arrivalPos="1439.03" arrivalPosLat="0.00" arrivalSpeed="1.00" duration="249.00" routeLength="1862.23" waitingTime="0.00" waitingCount="0" stopTime="120.00" timeLoss="61.92" rerouteNo="0" devices="tripinfo_pt_light_rail_U13:0.0 routing_pt_light_rail_U13:0.0 emissions_pt_light_rail_U13:0.0" vType="pt_light_rail" speedFactor="1.00" vaporized="">
        <emissions CO_abs="0" CO2_abs="0" HC_abs="0" PMx_abs="0" NOx_abs="0" fuel_abs="0" electricity_abs="0"/>
    </tripinfo>
    <tripinfo id="pt_light_rail_U13:1.0" depart="0.00" departLane="68552415#0_0" departPos="109.60" departPosLat="0.00" departSpeed="0.00" departDelay="0.00" arrival="254.00" arrivalLane="172027783_0" arrivalPos="98.63" arrivalPosLat="0.00" arrivalSpeed="1.00" duration="254.00" routeLength="1860.56" waitingTime="0.00" waitingCount="0" stopTime="120.00" timeLoss="66.98" rerouteNo="0" devices="tripinfo_pt_light_rail_U13:1.0 routing_pt_light_rail_U13:1.0 emissions_pt_light_rail_U13:1.0" vType="pt_light_rail" speedFactor="1.00" vaporized="">
        <emissions CO_abs="0" CO2_abs="0" HC_abs="0" PMx_abs="0" NOx_abs="0" fuel_abs="0" electricity_abs="0"/>
    </tripinfo>
    <tripinfo id="pt_light_rail_U9:0.0" depart="51.00" departLane="673171637_0" departPos="109.60" departPosLat="0.00" departSpeed="0.00" departDelay="0.00" arrival="265.00" arrivalLane="172027782#5_0" arrivalPos="1439.03" arrivalPosLat="0.00" arrivalSpeed="27.78" duration="214.00" routeLength="1862.23" waitingTime="0.00" waitingCount="0" stopTime="90.00" timeLoss="56.50" rerouteNo="0" devices="tripinfo_pt_light_rail_U9:0.0 routing_pt_light_rail_U9:0.0 emissions_pt_light_rail_U9:0.0" vType="pt_light_rail" speedFactor="1.00" vaporized="">
        <emissions CO_abs="0" CO2_abs="0" HC_abs="0" PMx_abs="0" NOx_abs="0" fuel_abs="0" electricity_abs="0"/>
    </tripinfo>
    <tripinfo id="pt_bus_61:1.0" depart="0.00" departLane="431444776#1_0" departPos="12.10" departPosLat="0.00" departSpeed="0.00" departDelay="0.00" arrival="276.00" arrivalLane="-676917368#0_1" arrivalPos="22.31" arrivalPosLat="0.00" arrivalSpeed="0.69" duration="276.00" routeLength="1030.97" waitingTime="37.00" waitingCount="3" stopTime="121.00" timeLoss="74.54" rerouteNo="0" devices="tripinfo_pt_bus_61:1.0 routing_pt_bus_61:1.0 emissions_pt_bus_61:1.0" vType="pt_bus" speedFactor="1.00" vaporized="">
        <emissions CO_abs="5985.553163" CO2_abs="2438708.296616" HC_abs="1367.341800" PMx_abs="613.729838" NOx_abs="22445.034573" fuel_abs="771435.846127" electricity_abs="0"/>
    </tripinfo>
    <tripinfo id="pt_light_rail_U9:1.0" depart="52.00" departLane="68552415#0_0" departPos="109.60" departPosLat="0.00" departSpeed="0.00" departDelay="0.00" arrival="306.00" arrivalLane="172027783_0" arrivalPos="98.63" arrivalPosLat="0.00" arrivalSpeed="1.00" duration="254.00" routeLength="1860.56" waitingTime="0.00" waitingCount="0" stopTime="120.00" timeLoss="66.98" rerouteNo="0" devices="tripinfo_pt_light_rail_U9:1.0 routing_pt_light_rail_U9:1.0 emissions_pt_light_rail_U9:1.0" vType="pt_light_rail" speedFactor="1.00" vaporized="">
        <emissions CO_abs="0" CO2_abs="0" HC_abs="0" PMx_abs="0" NOx_abs="0" fuel_abs="0" electricity_abs="0"/>
    </tripinfo>
    <tripinfo id="pt_train_RE_5:0.0" depart="0.00" departLane="156199094#3_0" departPos="135.10" departPosLat="0.00" departSpeed="0.00" departDelay="0.00" arrival="317.00" arrivalLane="48316096#2_0" arrivalPos="589.00" arrivalPosLat="0.00" arrivalSpeed="7.75" duration="317.00" routeLength="4125.58" waitingTime="0.00" waitingCount="0" stopTime="60.00" timeLoss="158.59" rerouteNo="0" devices="tripinfo_pt_train_RE_5:0.0 routing_pt_train_RE_5:0.0 emissions_pt_train_RE_5:0.0" vType="pt_train" speedFactor="1.00" vaporized="">
        <emissions CO_abs="11663.485655" CO2_abs="5896211.708190" HC_abs="2772.382452" PMx_abs="2314.427146" NOx_abs="82412.669696" fuel_abs="1855184.126634" electricity_abs="0"/>
    </tripinfo>
    <tripinfo id="p1_0" depart="362.00" departLane="-23999291#1_1" departPos="8.00" departPosLat="0.00" departSpeed="0.00" departDelay="0.00" arrival="367.00" arrivalLane="-23999291#1_1" arrivalPos="16.00" arrivalPosLat="-1.27" arrivalSpeed="0.08" duration="5.00" routeLength="8.00" waitingTime="1.00" waitingCount="1" stopTime="0.00" timeLoss="3.61" rerouteNo="0" devices="tripinfo_p1_0 routing_p1_0 emissions_p1_0 person_p1_0" vType="bicycle" speedFactor="1.03" vaporized="">
        <emissions CO_abs="0" CO2_abs="0" HC_abs="0" PMx_abs="0" NOx_abs="0" fuel_abs="0" electricity_abs="0"/>
    </tripinfo>
    <tripinfo id="pt_bus_816:1.0" depart="0.00" departLane="-294067066#1_1" departPos="12.10" departPosLat="0.00" departSpeed="0.00" departDelay="0.00" arrival="416.00" arrivalLane="29146499#2_1" arrivalPos="40.22" arrivalPosLat="0.00" arrivalSpeed="3.79" duration="416.00" routeLength="2061.50" waitingTime="49.00" waitingCount="2" stopTime="115.00" timeLoss="106.89" rerouteNo="0" devices="tripinfo_pt_bus_816:1.0 routing_pt_bus_816:1.0 emissions_pt_bus_816:1.0" vType="pt_bus" speedFactor="1.00" vaporized="">
        <emissions CO_abs="8986.948141" CO2_abs="4031258.434298" HC_abs="2041.428281" PMx_abs="930.516169" NOx_abs="35553.047614" fuel_abs="1275353.162464" electricity_abs="0"/>
    </tripinfo>
    <tripinfo id="pt_bus_61:0.0" depart="0.00" departLane="-540190677_1" departPos="12.10" departPosLat="0.00" departSpeed="0.00" departDelay="0.00" arrival="480.00" arrivalLane="-24779203#0_0" arrivalPos="263.70" arrivalPosLat="0.00" arrivalSpeed="5.11" duration="480.00" routeLength="2182.34" waitingTime="3.00" waitingCount="3" stopTime="213.00" timeLoss="105.81" rerouteNo="0" devices="tripinfo_pt_bus_61:0.0 routing_pt_bus_61:0.0 emissions_pt_bus_61:0.0" vType="pt_bus" speedFactor="1.00" vaporized="">
        <emissions CO_abs="11012.703920" CO2_abs="5062530.068237" HC_abs="2433.820859" PMx_abs="1139.149886" NOx_abs="44260.902449" fuel_abs="1601606.417428" electricity_abs="0"/>
    </tripinfo>
    <tripinfo id="pt_light_rail_U8:1.0" depart="0.00" departLane="26946520#0_0" departPos="109.60" departPosLat="0.00" departSpeed="0.00" departDelay="0.00" arrival="498.00" arrivalLane="40985104#4_0" arrivalPos="2135.05" arrivalPosLat="0.00" arrivalSpeed="1.00" duration="498.00" routeLength="4576.90" waitingTime="0.00" waitingCount="0" stopTime="210.00" timeLoss="123.20" rerouteNo="0" devices="tripinfo_pt_light_rail_U8:1.0 routing_pt_light_rail_U8:1.0 emissions_pt_light_rail_U8:1.0" vType="pt_light_rail" speedFactor="1.00" vaporized="">
        <emissions CO_abs="0" CO2_abs="0" HC_abs="0" PMx_abs="0" NOx_abs="0" fuel_abs="0" electricity_abs="0"/>
    </tripinfo>
    <tripinfo id="pt_bus_816:0.0" depart="0.00" departLane="29146499#2_1" departPos="12.10" departPosLat="0.00" departSpeed="0.00" departDelay="0.00" arrival="509.00" arrivalLane="294067066#10_1" arrivalPos="37.98" arrivalPosLat="0.00" arrivalSpeed="3.05" duration="509.00" routeLength="2307.06" waitingTime="69.00" waitingCount="5" stopTime="156.00" timeLoss="138.74" rerouteNo="0" devices="tripinfo_pt_bus_816:0.0 routing_pt_bus_816:0.0 emissions_pt_bus_816:0.0" vType="pt_bus" speedFactor="1.00" vaporized="">
        <emissions CO_abs="10959.574555" CO2_abs="4731127.828156" HC_abs="2506.259490" PMx_abs="1130.945845" NOx_abs="42415.992253" fuel_abs="1496710.097773" electricity_abs="0"/>
    </tripinfo>
    <tripinfo id="pt_bus_65:1.0" depart="39.00" departLane="27607327#0_1" departPos="12.10" departPosLat="0.00" departSpeed="0.00" departDelay="0.00" arrival="520.00" arrivalLane="-676917368#0_1" arrivalPos="22.31" arrivalPosLat="0.00" arrivalSpeed="1.12" duration="481.00" routeLength="1888.42" waitingTime="86.00" waitingCount="6" stopTime="151.00" timeLoss="186.17" rerouteNo="0" devices="tripinfo_pt_bus_65:1.0 routing_pt_bus_65:1.0 emissions_pt_bus_65:1.0" vType="pt_bus" speedFactor="1.00" vaporized="">
        <emissions CO_abs="10868.365985" CO2_abs="4797714.668413" HC_abs="2412.814466" PMx_abs="1119.669374" NOx_abs="42680.108647" fuel_abs="1517760.185449" electricity_abs="0"/>
    </tripinfo>
    <tripinfo id="pt_light_rail_U7:1.0" depart="15.00" departLane="26946520#0_0" departPos="109.60" departPosLat="0.00" departSpeed="0.00" departDelay="0.00" arrival="549.00" arrivalLane="40985104#4_0" arrivalPos="2135.05" arrivalPosLat="0.00" arrivalSpeed="1.00" duration="534.00" routeLength="4576.90" waitingTime="25.00" waitingCount="1" stopTime="210.00" timeLoss="159.20" rerouteNo="0" devices="tripinfo_pt_light_rail_U7:1.0 routing_pt_light_rail_U7:1.0 emissions_pt_light_rail_U7:1.0" vType="pt_light_rail" speedFactor="1.00" vaporized="">
        <emissions CO_abs="0" CO2_abs="0" HC_abs="0" PMx_abs="0" NOx_abs="0" fuel_abs="0" electricity_abs="0"/>
    </tripinfo>
    <tripinfo id="pt_light_rail_U8:0.0" depart="0.00" departLane="89344777#0_0" departPos="109.60" departPosLat="0.00" departSpeed="0.00" departDelay="0.00" arrival="558.00" arrivalLane="26946516#1_0" arrivalPos="1910.04" arrivalPosLat="0.00" arrivalSpeed="27.78" duration="558.00" routeLength="5963.27" waitingTime="0.00" waitingCount="0" stopTime="210.00" timeLoss="132.34" rerouteNo="0" devices="tripinfo_pt_light_rail_U8:0.0 routing_pt_light_rail_U8:0.0 emissions_pt_light_rail_U8:0.0" vType="pt_light_rail" speedFactor="1.00" vaporized="">
        <emissions CO_abs="0" CO2_abs="0" HC_abs="0" PMx_abs="0" NOx_abs="0" fuel_abs="0" electricity_abs="0"/>
    </tripinfo>
    <tripinfo id="pt_light_rail_U7:0.0" depart="52.00" departLane="89344777#0_0" departPos="109.60" departPosLat="0.00" departSpeed="0.00" departDelay="0.00" arrival="610.00" arrivalLane="26946516#1_0" arrivalPos="1910.04" arrivalPosLat="0.00" arrivalSpeed="27.78" duration="558.00" routeLength="5963.27" waitingTime="0.00" waitingCount="0" stopTime="210.00" timeLoss="132.34" rerouteNo="0" devices="tripinfo_pt_light_rail_U7:0.0 routing_pt_light_rail_U7:0.0 emissions_pt_light_rail_U7:0.0" vType="pt_light_rail" speedFactor="1.00" vaporized="">
        <emissions CO_abs="0" CO2_abs="0" HC_abs="0" PMx_abs="0" NOx_abs="0" fuel_abs="0" electricity_abs="0"/>
    </tripinfo>
    <tripinfo id="pt_bus_65:0.0" depart="0.00" departLane="-676917368#0_1" departPos="12.10" departPosLat="0.00" departSpeed="0.00" departDelay="0.00" arrival="627.00" arrivalLane="-27607327#1_1" arrivalPos="46.34" arrivalPosLat="0.00" arrivalSpeed="2.28" duration="627.00" routeLength="2396.96" waitingTime="104.00" waitingCount="10" stopTime="205.00" timeLoss="242.37" rerouteNo="0" devices="tripinfo_pt_bus_65:0.0 routing_pt_bus_65:0.0 emissions_pt_bus_65:0.0" vType="pt_bus" speedFactor="1.00" vaporized="">
        <emissions CO_abs="14119.977524" CO2_abs="6188995.536054" HC_abs="3145.705724" PMx_abs="1454.195396" NOx_abs="55216.137987" fuel_abs="1957883.820159" electricity_abs="0"/>
    </tripinfo>
    <tripinfo id="p4_0" depart="66.00" departLane="265461450_0" departPos="9.81" departPosLat="0.00" departSpeed="0.00" departDelay="0.00" arrival="636.00" arrivalLane="448018991_1" arrivalPos="18.48" arrivalPosLat="0.15" arrivalSpeed="0.25" duration="570.00" routeLength="4885.28" waitingTime="90.00" waitingCount="4" stopTime="0.00" timeLoss="173.91" rerouteNo="1" devices="tripinfo_p4_0 routing_p4_0 emissions_p4_0 person_p4_0" vType="motorcycle" speedFactor="1.08" vaporized="">
        <emissions CO_abs="62834.642594" CO2_abs="1566937.735620" HC_abs="273.423060" PMx_abs="89.382813" NOx_abs="344.487203" fuel_abs="499842.309132" electricity_abs="0"/>
    </tripinfo>
    <tripinfo id="pt_bus_121:0.0" depart="0.00" departLane="-392589607#0_1" departPos="12.10" departPosLat="0.00" departSpeed="0.00" departDelay="0.00" arrival="658.00" arrivalLane="613655965_1" arrivalPos="255.51" arrivalPosLat="0.00" arrivalSpeed="7.55" duration="658.00" routeLength="3513.31" waitingTime="44.00" waitingCount="3" stopTime="248.00" timeLoss="152.70" rerouteNo="0" devices="tripinfo_pt_bus_121:0.0 routing_pt_bus_121:0.0 emissions_pt_bus_121:0.0" vType="pt_bus" speedFactor="1.00" vaporized="">
        <emissions CO_abs="15019.346181" CO2_abs="6987417.916825" HC_abs="3382.629444" PMx_abs="1559.865232" NOx_abs="60698.365283" fuel_abs="2210654.892198" electricity_abs="0"/>
    </tripinfo>
    <tripinfo id="pt_bus_121:1.0" depart="12.00" departLane="-207082664_1" departPos="12.10" departPosLat="0.00" departSpeed="0.00" departDelay="0.00" arrival="686.00" arrivalLane="392589607#3_1" arrivalPos="31.11" arrivalPosLat="0.00" arrivalSpeed="5.66" duration="674.00" routeLength="3629.01" waitingTime="56.00" waitingCount="2" stopTime="247.00" timeLoss="162.22" rerouteNo="0" devices="tripinfo_pt_bus_121:1.0 routing_pt_bus_121:1.0 emissions_pt_bus_121:1.0" vType="pt_bus" speedFactor="1.00" vaporized="">
        <emissions CO_abs="14774.192599" CO2_abs="6729908.854379" HC_abs="3361.507598" PMx_abs="1532.801168" NOx_abs="58951.752293" fuel_abs="2129158.190144" electricity_abs="0"/>
    </tripinfo>
    <tripinfo id="pt_bus_62:0.0" depart="0.00" departLane="27607327#0_1" departPos="12.10" departPosLat="0.00" departSpeed="0.00" departDelay="0.00" arrival="689.00" arrivalLane="-195389808#1_1" arrivalPos="142.50" arrivalPosLat="0.00" arrivalSpeed="10.73" duration="689.00" routeLength="3518.45" waitingTime="47.00" waitingCount="8" stopTime="247.00" timeLoss="178.96" rerouteNo="0" devices="tripinfo_pt_bus_62:0.0 routing_pt_bus_62:0.0 emissions_pt_bus_62:0.0" vType="pt_bus" speedFactor="1.00" vaporized="">
        <emissions CO_abs="15753.422614" CO2_abs="7336085.898267" HC_abs="3519.951336" PMx_abs="1634.492637" NOx_abs="63735.357617" fuel_abs="2320945.963306" electricity_abs="0"/>
    </tripinfo>
    <tripinfo id="pt_bus_X20:1.0" depart="39.00" departLane="268558821#1_1" departPos="12.10" departPosLat="0.00" departSpeed="0.00" departDelay="32.00" arrival="764.00" arrivalLane="-232962013#1_1" arrivalPos="13.55" arrivalPosLat="0.00" arrivalSpeed="0.80" duration="725.00" routeLength="5682.81" waitingTime="62.00" waitingCount="6" stopTime="70.00" timeLoss="148.06" rerouteNo="0" devices="tripinfo_pt_bus_X20:1.0 routing_pt_bus_X20:1.0 emissions_pt_bus_X20:1.0" vType="pt_bus" speedFactor="1.00" vaporized="">
        <emissions CO_abs="15762.151231" CO2_abs="8276002.045375" HC_abs="3560.013268" PMx_abs="1662.608704" NOx_abs="68378.396986" fuel_abs="2618693.014010" electricity_abs="0"/>
    </tripinfo>
    <tripinfo id="pt_bus_X20:0.0" depart="0.00" departLane="232962013#1_1" departPos="12.10" departPosLat="0.00" departSpeed="0.00" departDelay="0.00" arrival="791.00" arrivalLane="268558821#1_1" arrivalPos="28.71" arrivalPosLat="0.00" arrivalSpeed="1.83" duration="791.00" routeLength="7121.57" waitingTime="20.00" waitingCount="4" stopTime="132.00" timeLoss="110.76" rerouteNo="0" devices="tripinfo_pt_bus_X20:0.0 routing_pt_bus_X20:0.0 emissions_pt_bus_X20:0.0" vType="pt_bus" speedFactor="1.00" vaporized="">
        <emissions CO_abs="18362.667246" CO2_abs="10217407.105897" HC_abs="4103.009314" PMx_abs="1949.300667" NOx_abs="82579.848950" fuel_abs="3233147.927516" electricity_abs="0"/>
    </tripinfo>
    <tripinfo id="pt_bus_119:1.0" depart="0.00" departLane="569733700#3_1" departPos="12.10" departPosLat="0.00" departSpeed="0.00" departDelay="0.00" arrival="797.00" arrivalLane="268558823#1_1" arrivalPos="25.19" arrivalPosLat="0.00" arrivalSpeed="0.66" duration="797.00" routeLength="4410.99" waitingTime="9.00" waitingCount="4" stopTime="320.00" timeLoss="124.28" rerouteNo="0" devices="tripinfo_pt_bus_119:1.0 routing_pt_bus_119:1.0 emissions_pt_bus_119:1.0" vType="pt_bus" speedFactor="1.00" vaporized="">
        <emissions CO_abs="17561.566602" CO2_abs="8115868.836206" HC_abs="3992.721026" PMx_abs="1824.871106" NOx_abs="70655.886708" fuel_abs="2567679.412197" electricity_abs="0"/>
    </tripinfo>
    <tripinfo id="pt_bus_140:1.0" depart="0.00" departLane="-39761675#3_1" departPos="12.10" departPosLat="0.00" departSpeed="0.00" departDelay="0.00" arrival="829.00" arrivalLane="268558821#1_1" arrivalPos="28.71" arrivalPosLat="0.00" arrivalSpeed="1.53" duration="829.00" routeLength="4728.53" waitingTime="189.00" waitingCount="9" stopTime="185.00" timeLoss="301.47" rerouteNo="0" devices="tripinfo_pt_bus_140:1.0 routing_pt_bus_140:1.0 emissions_pt_bus_140:1.0" vType="pt_bus" speedFactor="1.00" vaporized="">
        <emissions CO_abs="18310.675795" CO2_abs="8456414.465300" HC_abs="4181.484348" PMx_abs="1903.750132" NOx_abs="73618.822115" fuel_abs="2675432.798001" electricity_abs="0"/>
    </tripinfo>
    <tripinfo id="pt_bus_119:0.0" depart="0.00" departLane="268558823#1_1" departPos="12.10" departPosLat="0.00" departSpeed="0.00" departDelay="0.00" arrival="846.00" arrivalLane="-127121917#0_1" arrivalPos="103.63" arrivalPosLat="0.00" arrivalSpeed="0.93" duration="846.00" routeLength="4303.86" waitingTime="96.00" waitingCount="10" stopTime="283.00" timeLoss="220.47" rerouteNo="0" devices="tripinfo_pt_bus_119:0.0 routing_pt_bus_119:0.0 emissions_pt_bus_119:0.0" vType="pt_bus" speedFactor="1.00" vaporized="">
        <emissions CO_abs="18600.782117" CO2_abs="8400176.402883" HC_abs="4213.791044" PMx_abs="1926.697025" NOx_abs="73881.157897" fuel_abs="2657543.028910" electricity_abs="0"/>
    </tripinfo>
    <tripinfo id="pt_light_rail_U9:0.1" depart="651.00" departLane="673171637_0" departPos="109.60" departPosLat="0.00" departSpeed="0.00" departDelay="0.00" arrival="865.00" arrivalLane="172027782#5_0" arrivalPos="1439.03" arrivalPosLat="0.00" arrivalSpeed="27.78" duration="214.00" routeLength="1862.23" waitingTime="0.00" waitingCount="0" stopTime="90.00" timeLoss="56.50" rerouteNo="0" devices="tripinfo_pt_light_rail_U9:0.1 routing_pt_light_rail_U9:0.1 emissions_pt_light_rail_U9:0.1" vType="pt_light_rail" speedFactor="1.00" vaporized="">
        <emissions CO_abs="0" CO2_abs="0" HC_abs="0" PMx_abs="0" NOx_abs="0" fuel_abs="0" electricity_abs="0"/>
    </tripinfo>
    <tripinfo id="pt_bus_140:0.0" depart="0.00" departLane="268558821#1_1" departPos="12.10" departPosLat="0.00" departSpeed="0.00" departDelay="0.00" arrival="866.00" arrivalLane="39761675#3_1" arrivalPos="87.90" arrivalPosLat="0.00" arrivalSpeed="2.87" duration="866.00" routeLength="5368.93" waitingTime="139.00" waitingCount="9" stopTime="187.00" timeLoss="282.24" rerouteNo="0" devices="tripinfo_pt_bus_140:0.0 routing_pt_bus_140:0.0 emissions_pt_bus_140:0.0" vType="pt_bus" speedFactor="1.00" vaporized="">
        <emissions CO_abs="19279.812452" CO2_abs="9161524.153958" HC_abs="4399.898416" PMx_abs="2011.137650" NOx_abs="78799.870073" fuel_abs="2898608.080299" electricity_abs="0"/>
    </tripinfo>
    <tripinfo id="pt_light_rail_U9:1.1" depart="652.00" departLane="68552415#0_0" departPos="109.60" departPosLat="0.00" departSpeed="0.00" departDelay="0.00" arrival="906.00" arrivalLane="172027783_0" arrivalPos="98.63" arrivalPosLat="0.00" arrivalSpeed="1.00" duration="254.00" routeLength="1860.56" waitingTime="0.00" waitingCount="0" stopTime="120.00" timeLoss="66.98" rerouteNo="0" devices="tripinfo_pt_light_rail_U9:1.1 routing_pt_light_rail_U9:1.1 emissions_pt_light_rail_U9:1.1" vType="pt_light_rail" speedFactor="1.00" vaporized="">
        <emissions CO_abs="0" CO2_abs="0" HC_abs="0" PMx_abs="0" NOx_abs="0" fuel_abs="0" electricity_abs="0"/>
    </tripinfo>
    <tripinfo id="pt_bus_120:1.0" depart="0.00" departLane="177336121_1" departPos="12.10" departPosLat="0.00" departSpeed="0.00" departDelay="0.00" arrival="916.00" arrivalLane="384972991#1_1" arrivalPos="28.13" arrivalPosLat="0.00" arrivalSpeed="0.61" duration="916.00" routeLength="4570.33" waitingTime="120.00" waitingCount="9" stopTime="301.00" timeLoss="253.66" rerouteNo="0" devices="tripinfo_pt_bus_120:1.0 routing_pt_bus_120:1.0 emissions_pt_bus_120:1.0" vType="pt_bus" speedFactor="1.00" vaporized="">
        <emissions CO_abs="19968.277164" CO2_abs="8899980.125011" HC_abs="4544.245109" PMx_abs="2066.557445" NOx_abs="78701.369540" fuel_abs="2815635.828532" electricity_abs="0"/>
    </tripinfo>
    <tripinfo id="pt_train_S1:1.0" depart="0.00" departLane="123444522#1_0" departPos="135.10" departPosLat="0.00" departSpeed="0.00" departDelay="0.00" arrival="947.00" arrivalLane="23163786#1_0" arrivalPos="616.75" arrivalPosLat="0.00" arrivalSpeed="7.50" duration="947.00" routeLength="10689.15" waitingTime="0.00" waitingCount="0" stopTime="180.00" timeLoss="435.15" rerouteNo="0" devices="tripinfo_pt_train_S1:1.0 routing_pt_train_S1:1.0 emissions_pt_train_S1:1.0" vType="pt_train" speedFactor="1.00" vaporized="">
        <emissions CO_abs="31565.550745" CO2_abs="16121374.072651" HC_abs="7941.341851" PMx_abs="6368.483715" NOx_abs="224590.337422" fuel_abs="5072459.511173" electricity_abs="0"/>
    </tripinfo>
    <tripinfo id="pt_train_S1:0.0" depart="0.00" departLane="292876200#2_0" departPos="135.10" departPosLat="0.00" departSpeed="0.00" departDelay="0.00" arrival="948.00" arrivalLane="180784454#2_0" arrivalPos="2403.09" arrivalPosLat="0.00" arrivalSpeed="7.00" duration="948.00" routeLength="10699.83" waitingTime="0.00" waitingCount="0" stopTime="180.00" timeLoss="438.09" rerouteNo="0" devices="tripinfo_pt_train_S1:0.0 routing_pt_train_S1:0.0 emissions_pt_train_S1:0.0" vType="pt_train" speedFactor="1.00" vaporized="">
        <emissions CO_abs="31600.304965" CO2_abs="16138980.749879" HC_abs="7956.413528" PMx_abs="6376.682066" NOx_abs="224824.704355" fuel_abs="5077999.600470" electricity_abs="0"/>
    </tripinfo>
    <tripinfo id="pt_bus_109:1.0" depart="0.00" departLane="387117388_1" departPos="1.30" departPosLat="0.00" departSpeed="0.00" departDelay="0.00" arrival="975.00" arrivalLane="-386500268#0_1" arrivalPos="71.25" arrivalPosLat="0.00" arrivalSpeed="5.13" duration="975.00" routeLength="4676.02" waitingTime="24.00" waitingCount="7" stopTime="373.00" timeLoss="140.89" rerouteNo="0" devices="tripinfo_pt_bus_109:1.0 routing_pt_bus_109:1.0 emissions_pt_bus_109:1.0" vType="pt_bus" speedFactor="1.00" vaporized="">
        <emissions CO_abs="20632.127139" CO2_abs="8924865.035055" HC_abs="4758.769002" PMx_abs="2132.171103" NOx_abs="79891.131959" fuel_abs="2823453.681786" electricity_abs="0"/>
    </tripinfo>
    <tripinfo id="pt_bus_N19:0.0" depart="142.00" departLane="268558823#1_1" departPos="12.10" departPosLat="0.00" departSpeed="0.00" departDelay="0.00" arrival="1019.00" arrivalLane="576816774#0_1" arrivalPos="239.14" arrivalPosLat="0.00" arrivalSpeed="10.88" duration="877.00" routeLength="4504.22" waitingTime="128.00" waitingCount="10" stopTime="275.00" timeLoss="271.26" rerouteNo="0" devices="tripinfo_pt_bus_N19:0.0 routing_pt_bus_N19:0.0 emissions_pt_bus_N19:0.0" vType="pt_bus" speedFactor="1.00" vaporized="">
        <emissions CO_abs="19755.244678" CO2_abs="9021590.312707" HC_abs="4460.202317" PMx_abs="2047.952889" NOx_abs="78983.050295" fuel_abs="2854164.649272" electricity_abs="0"/>
    </tripinfo>
    <tripinfo id="pt_bus_114:0.0" depart="0.00" departLane="384972991#1_1" departPos="12.10" departPosLat="0.00" departSpeed="0.00" departDelay="0.00" arrival="1025.00" arrivalLane="846930959_1" arrivalPos="96.74" arrivalPosLat="0.00" arrivalSpeed="12.44" duration="1025.00" routeLength="5664.17" waitingTime="195.00" waitingCount="12" stopTime="222.00" timeLoss="359.14" rerouteNo="0" devices="tripinfo_pt_bus_114:0.0 routing_pt_bus_114:0.0 emissions_pt_bus_114:0.0" vType="pt_bus" speedFactor="1.00" vaporized="">
        <emissions CO_abs="22794.669435" CO2_abs="10594484.725578" HC_abs="5172.516137" PMx_abs="2369.608238" NOx_abs="92022.180306" fuel_abs="3351872.658302" electricity_abs="0"/>
    </tripinfo>
    <tripinfo id="pt_bus_114:1.0" depart="0.00" departLane="-846930959_1" departPos="12.10" departPosLat="0.00" departSpeed="0.00" departDelay="0.00" arrival="1095.00" arrivalLane="384972991#1_1" arrivalPos="28.13" arrivalPosLat="0.00" arrivalSpeed="0.98" duration="1095.00" routeLength="4964.62" waitingTime="332.00" waitingCount="17" stopTime="208.00" timeLoss="500.46" rerouteNo="0" devices="tripinfo_pt_bus_114:1.0 routing_pt_bus_114:1.0 emissions_pt_bus_114:1.0" vType="pt_bus" speedFactor="1.00" vaporized="">
        <emissions CO_abs="24297.655671" CO2_abs="10671960.997444" HC_abs="5506.085362" PMx_abs="2508.937281" NOx_abs="95009.719991" fuel_abs="3376148.077133" electricity_abs="0"/>
    </tripinfo>
    <tripinfo id="pt_bus_114:2.0" depart="49.00" departLane="384972991#1_1" departPos="12.10" departPosLat="0.00" departSpeed="0.00" departDelay="43.00" arrival="1115.00" arrivalLane="846930959_1" arrivalPos="96.74" arrivalPosLat="0.00" arrivalSpeed="12.15" duration="1066.00" routeLength="5611.84" waitingTime="175.00" waitingCount="13" stopTime="296.00" timeLoss="333.88" rerouteNo="0" devices="tripinfo_pt_bus_114:2.0 routing_pt_bus_114:2.0 emissions_pt_bus_114:2.0" vType="pt_bus" speedFactor="1.00" vaporized="">
        <emissions CO_abs="23683.858861" CO2_abs="10867345.409759" HC_abs="5354.563272" PMx_abs="2457.060029" NOx_abs="94937.873545" fuel_abs="3438132.454175" electricity_abs="0"/>
    </tripinfo>
    <tripinfo id="pt_bus_106:1.0" depart="6.00" departLane="-846930959_1" departPos="12.10" departPosLat="0.00" departSpeed="0.00" departDelay="1.00" arrival="1139.00" arrivalLane="384972991#1_1" arrivalPos="28.13" arrivalPosLat="0.00" arrivalSpeed="0.69" duration="1133.00" routeLength="4964.62" waitingTime="352.00" waitingCount="17" stopTime="222.00" timeLoss="524.84" rerouteNo="0" devices="tripinfo_pt_bus_106:1.0 routing_pt_bus_106:1.0 emissions_pt_bus_106:1.0" vType="pt_bus" speedFactor="1.00" vaporized="">