<?xml version="1.0" encoding="UTF-8"?>

<!-- generated on 2024-02-29 10:54:58 by Eclipse SUMO sumo Version 1.19.0
<configuration xmlns:xsi="http://www.w3.org/2001/XMLSchema-instance" xsi:noNamespaceSchemaLocation="http://sumo.dlr.de/xsd/sumoConfiguration.xsd">

    <input>
        <net-file value="Without_transport\crr.net.xml"/>
        <route-files value="Without_transport\flows.rou.xml"/>
        <additional-files value="Without_transport\osm_polygons.add.xml,Without_transport\ basic.vType.xml,Without_transport\ additional.xml,Without_transport\ data.rou.xml"/>
    </input>

    <output>
        <output-prefix value="output."/>
        <summary-output value="Without_transport\summary.xml"/>
        <person-summary-output value="Without_transport\person.summary.xml"/>
        <tripinfo-output value="Without_transport\tripinfo.xml"/>
        <tripinfo-output.write-unfinished value="false"/>
        <statistic-output value="Without_transport\statistics.xml"/>
    </output>

    <processing>
        <lateral-resolution value="0.8"/>
        <ignore-junction-blocker value="60"/>
        <ignore-route-errors value="true"/>
        <collision.action value="teleport"/>
        <time-to-teleport value="300"/>
        <max-depart-delay value="900"/>
        <time-to-impatience value="120"/>
        <parking.maneuver value="true"/>
        <pedestrian.model value="striping"/>
        <pedestrian.striping.stripe-width value="0.55"/>
        <pedestrian.striping.dawdling value="0.2"/>
        <pedestrian.striping.jamtime value="60"/>
        <pedestrian.striping.jamtime.crossing value="10"/>
        <pedestrian.striping.reserve-oncoming value="0.25"/>
        <pedestrian.striping.reserve-oncoming.junctions value="0.34"/>
        <ride.stop-tolerance value="25"/>
    </processing>

    <routing>
        <routing-algorithm value="astar"/>
        <persontrip.walkfactor value="0.75"/>
        <persontrip.transfer.car-walk value="parkingAreas,allJunctions"/>
        <persontrip.transfer.taxi-walk value="parkingAreas,allJunctions"/>
        <persontrip.transfer.walk-taxi value="parkingAreas,allJunctions"/>
        <persontrip.taxi.waiting-time value="300"/>
        <device.rerouting.probability value="1"/>
        <device.rerouting.period value="300"/>
        <device.rerouting.pre-period value="300"/>
        <device.rerouting.threads value="64"/>
        <device.rerouting.bike-speeds value="true"/>
        <person-device.rerouting.probability value="1"/>
        <person-device.rerouting.period value="300"/>
    </routing>

    <report>
        <verbose value="true"/>
        <no-warnings value="true"/>
        <duration-log.disable value="false"/>
        <duration-log.statistics value="true"/>
        <no-step-log value="false"/>
        <step-log.period value="2"/>
    </report>

    <taxi_device>
        <device.taxi.dispatch-algorithm value="greedy"/>
        <device.taxi.dispatch-algorithm.output value="Without_transport\taxi.dispatch.xml"/>
        <device.taxi.dispatch-period value="60"/>
        <device.taxi.idle-algorithm value="stop"/>
        <device.taxi.idle-algorithm.output value="Without_transport\taxi.idle.xml"/>
    </taxi_device>

    <traci_server>
        <remote-port value="50565"/>
    </traci_server>

    <random_number>
        <seed value="42"/>
    </random_number>

    <gui_only>
        <gui-settings-file value="Without_transport\default-gui.xml"/>
    </gui_only>

</configuration>
-->

<tripinfos xmlns:xsi="http://www.w3.org/2001/XMLSchema-instance" xsi:noNamespaceSchemaLocation="http://sumo.dlr.de/xsd/tripinfo_file.xsd">
    <tripinfo id="pt_light_rail_U13:0.0" depart="0.00" departLane="4338256_0" departPos="95.37" departPosLat="0.00" departSpeed="0.00" departDelay="0.00" arrival="207.00" arrivalLane="172027782#8_0" arrivalPos="286.44" arrivalPosLat="0.00" arrivalSpeed="27.78" duration="207.00" routeLength="1835.74" waitingTime="1.00" waitingCount="1" stopTime="90.00" timeLoss="50.74" rerouteNo="0" devices="tripinfo_pt_light_rail_U13:0.0 routing_pt_light_rail_U13:0.0" vType="pt_light_rail" speedFactor="1.00" vaporized=""/>
    <tripinfo id="pt_light_rail_U13:1.0" depart="0.00" departLane="68552415#0_0" departPos="109.60" departPosLat="0.00" departSpeed="0.00" departDelay="0.00" arrival="228.00" arrivalLane="172027783_0" arrivalPos="58.11" arrivalPosLat="0.00" arrivalSpeed="1.00" duration="228.00" routeLength="1820.23" waitingTime="1.00" waitingCount="1" stopTime="120.00" timeLoss="42.44" rerouteNo="0" devices="tripinfo_pt_light_rail_U13:1.0 routing_pt_light_rail_U13:1.0" vType="pt_light_rail" speedFactor="1.00" vaporized=""/>
    <tripinfo id="pt_light_rail_U9:0.0" depart="15.00" departLane="4338256_0" departPos="95.37" departPosLat="0.00" departSpeed="0.00" departDelay="0.00" arrival="255.00" arrivalLane="172027782#8_0" arrivalPos="286.44" arrivalPosLat="0.00" arrivalSpeed="27.78" duration="240.00" routeLength="1835.74" waitingTime="51.00" waitingCount="1" stopTime="60.00" timeLoss="113.74" rerouteNo="0" devices="tripinfo_pt_light_rail_U9:0.0 routing_pt_light_rail_U9:0.0" vType="pt_light_rail" speedFactor="1.00" vaporized=""/>
    <tripinfo id="pt_bus_61:1.0" depart="0.00" departLane="431444776_0" departPos="12.10" departPosLat="0.00" departSpeed="0.00" departDelay="0.00" arrival="278.00" arrivalLane="-676917368#0_0" arrivalPos="19.04" arrivalPosLat="0.00" arrivalSpeed="1.04" duration="278.00" routeLength="1041.77" waitingTime="39.00" waitingCount="4" stopTime="118.00" timeLoss="79.28" rerouteNo="0" devices="tripinfo_pt_bus_61:1.0 routing_pt_bus_61:1.0" vType="pt_bus" speedFactor="1.00" vaporized=""/>
    <tripinfo id="pt_bus_61:0.0" depart="0.00" departLane="-26263195#1_0" departPos="1.14" departPosLat="0.00" departSpeed="0.00" departDelay="0.00" arrival="284.00" arrivalLane="-431444776_0" arrivalPos="34.49" arrivalPosLat="0.00" arrivalSpeed="1.73" duration="284.00" routeLength="1141.19" waitingTime="17.00" waitingCount="4" stopTime="121.00" timeLoss="79.06" rerouteNo="0" devices="tripinfo_pt_bus_61:0.0 routing_pt_bus_61:0.0" vType="pt_bus" speedFactor="1.00" vaporized=""/>
    <tripinfo id="pt_bus_121:0.0" depart="0.00" departLane="-27531049#6_0" departPos="10.68" departPosLat="0.00" departSpeed="0.00" departDelay="0.00" arrival="285.00" arrivalLane="207210285_0" arrivalPos="23.68" arrivalPosLat="0.00" arrivalSpeed="13.69" duration="285.00" routeLength="2044.43" waitingTime="1.00" waitingCount="1" stopTime="95.00" timeLoss="42.01" rerouteNo="0" devices="tripinfo_pt_bus_121:0.0 routing_pt_bus_121:0.0" vType="pt_bus" speedFactor="1.00" vaporized=""/>
    <tripinfo id="pt_bus_121:1.0" depart="0.00" departLane="207210286_0" departPos="12.10" departPosLat="0.00" departSpeed="0.00" departDelay="0.00" arrival="329.00" arrivalLane="392589607#3_0" arrivalPos="0.20" arrivalPosLat="0.00" arrivalSpeed="0.74" duration="329.00" routeLength="2179.39" waitingTime="0.00" waitingCount="0" stopTime="128.00" timeLoss="42.69" rerouteNo="0" devices="tripinfo_pt_bus_121:1.0 routing_pt_bus_121:1.0" vType="pt_bus" speedFactor="1.00" vaporized=""/>
    <tripinfo id="pt_light_rail_U9:1.0" depart="52.00" departLane="68552415#0_0" departPos="109.60" departPosLat="0.00" departSpeed="0.00" departDelay="0.00" arrival="343.00" arrivalLane="172027783_0" arrivalPos="58.11" arrivalPosLat="0.00" arrivalSpeed="1.00" duration="291.00" routeLength="1820.23" waitingTime="58.00" waitingCount="2" stopTime="120.00" timeLoss="105.44" rerouteNo="0" devices="tripinfo_pt_light_rail_U9:1.0 routing_pt_light_rail_U9:1.0" vType="pt_light_rail" speedFactor="1.00" vaporized=""/>
    <tripinfo id="pt_bus_65:0.0" depart="0.00" departLane="-527346555_0" departPos="2.00" departPosLat="0.00" departSpeed="0.00" departDelay="0.00" arrival="414.00" arrivalLane="27607365#2_0" arrivalPos="68.47" arrivalPosLat="0.00" arrivalSpeed="13.65" duration="414.00" routeLength="2087.07" waitingTime="57.00" waitingCount="4" stopTime="125.00" timeLoss="135.69" rerouteNo="0" devices="tripinfo_pt_bus_65:0.0 routing_pt_bus_65:0.0" vType="pt_bus" speedFactor="1.00" vaporized=""/>
    <tripinfo id="pt_bus_65:1.0" depart="0.00" departLane="788566318#0_0" departPos="12.10" departPosLat="0.00" departSpeed="0.00" departDelay="0.00" arrival="471.00" arrivalLane="-676917368#0_0" arrivalPos="19.04" arrivalPosLat="0.00" arrivalSpeed="0.74" duration="471.00" routeLength="1901.34" waitingTime="68.00" waitingCount="5" stopTime="163.00" timeLoss="164.20" rerouteNo="0" devices="tripinfo_pt_bus_65:1.0 routing_pt_bus_65:1.0" vType="pt_bus" speedFactor="1.00" vaporized=""/>
    <tripinfo id="pt_bus_62:0.0" depart="0.00" departLane="570449183#0_0" departPos="12.10" departPosLat="0.00" departSpeed="0.00" departDelay="0.00" arrival="495.00" arrivalLane="-686400891#0_0" arrivalPos="8.78" arrivalPosLat="0.00" arrivalSpeed="13.55" duration="495.00" routeLength="2916.80" waitingTime="46.00" waitingCount="3" stopTime="158.00" timeLoss="124.86" rerouteNo="0" devices="tripinfo_pt_bus_62:0.0 routing_pt_bus_62:0.0" vType="pt_bus" speedFactor="1.00" vaporized=""/>
    <tripinfo id="pt_bus_816:0.0" depart="0.00" departLane="161599839#0_0" departPos="12.10" departPosLat="0.00" departSpeed="0.00" departDelay="0.00" arrival="513.00" arrivalLane="12511795_0" arrivalPos="934.48" arrivalPosLat="0.00" arrivalSpeed="19.43" duration="513.00" routeLength="3743.63" waitingTime="24.00" waitingCount="5" stopTime="124.00" timeLoss="91.50" rerouteNo="0" devices="tripinfo_pt_bus_816:0.0 routing_pt_bus_816:0.0" vType="pt_bus" speedFactor="1.00" vaporized=""/>
    <tripinfo id="pt_light_rail_U8:0.0" depart="0.00" departLane="89344777#0_0" departPos="109.60" departPosLat="0.00" departSpeed="0.00" departDelay="0.00" arrival="518.00" arrivalLane="26946519#1_0" arrivalPos="558.41" arrivalPosLat="0.00" arrivalSpeed="27.78" duration="518.00" routeLength="5963.67" waitingTime="2.00" waitingCount="2" stopTime="210.00" timeLoss="92.33" rerouteNo="0" devices="tripinfo_pt_light_rail_U8:0.0 routing_pt_light_rail_U8:0.0" vType="pt_light_rail" speedFactor="1.00" vaporized=""/>
    <tripinfo id="pt_bus_816:1.0" depart="0.00" departLane="-12511795_0" departPos="12.10" departPosLat="0.00" departSpeed="0.00" departDelay="0.00" arrival="546.00" arrivalLane="29146499#2_0" arrivalPos="22.94" arrivalPosLat="0.00" arrivalSpeed="0.75" duration="546.00" routeLength="3677.97" waitingTime="22.00" waitingCount="2" stopTime="169.00" timeLoss="86.09" rerouteNo="0" devices="tripinfo_pt_bus_816:1.0 routing_pt_bus_816:1.0" vType="pt_bus" speedFactor="1.00" vaporized=""/>
    <tripinfo id="pt_light_rail_U8:1.0" depart="0.00" departLane="260664667#0_0" departPos="109.60" departPosLat="0.00" departSpeed="0.00" departDelay="0.00" arrival="565.00" arrivalLane="40985104#5_0" arrivalPos="509.53" arrivalPosLat="0.00" arrivalSpeed="27.78" duration="565.00" routeLength="5977.29" waitingTime="1.00" waitingCount="1" stopTime="210.00" timeLoss="120.04" rerouteNo="0" devices="tripinfo_pt_light_rail_U8:1.0 routing_pt_light_rail_U8:1.0" vType="pt_light_rail" speedFactor="1.00" vaporized=""/>
    <tripinfo id="pt_train_RE_5:0.0" depart="0.00" departLane="248760538#0_0" departPos="135.10" departPosLat="0.00" departSpeed="0.00" departDelay="0.00" arrival="594.00" arrivalLane="762092286_0" arrivalPos="326.18" arrivalPosLat="0.00" arrivalSpeed="19.44" duration="594.00" routeLength="11041.48" waitingTime="0.00" waitingCount="0" stopTime="60.00" timeLoss="255.99" rerouteNo="0" devices="tripinfo_pt_train_RE_5:0.0 routing_pt_train_RE_5:0.0" vType="pt_train" speedFactor="1.00" vaporized=""/>
    <tripinfo id="pt_bus_104:2.0" depart="0.00" departLane="355356765_0" departPos="12.10" departPosLat="0.00" departSpeed="0.00" departDelay="0.00" arrival="606.00" arrivalLane="385405404_0" arrivalPos="37.37" arrivalPosLat="0.00" arrivalSpeed="2.62" duration="606.00" routeLength="5533.03" waitingTime="48.00" waitingCount="3" stopTime="66.00" timeLoss="138.35" rerouteNo="1" devices="tripinfo_pt_bus_104:2.0 routing_pt_bus_104:2.0" vType="pt_bus" speedFactor="1.00" vaporized=""/>
    <tripinfo id="pt_bus_62:1.0" depart="0.00" departLane="686400891#0_0" departPos="8.78" departPosLat="0.00" departSpeed="0.00" departDelay="0.00" arrival="631.00" arrivalLane="-570449183#0_0" arrivalPos="238.53" arrivalPosLat="0.00" arrivalSpeed="13.70" duration="631.00" routeLength="3075.85" waitingTime="148.00" waitingCount="9" stopTime="121.00" timeLoss="278.49" rerouteNo="0" devices="tripinfo_pt_bus_62:1.0 routing_pt_bus_62:1.0" vType="pt_bus" speedFactor="1.00" vaporized=""/>
    <tripinfo id="pt_light_rail_U7:0.0" depart="52.00" departLane="89344777#0_0" departPos="109.60" departPosLat="0.00" departSpeed="0.00" departDelay="0.00" arrival="643.00" arrivalLane="26946519#1_0" arrivalPos="558.41" arrivalPosLat="0.00" arrivalSpeed="27.78" duration="591.00" routeLength="5963.67" waitingTime="51.00" waitingCount="4" stopTime="210.00" timeLoss="165.33" rerouteNo="0" devices="tripinfo_pt_light_rail_U7:0.0 routing_pt_light_rail_U7:0.0" vType="pt_light_rail" speedFactor="1.00" vaporized=""/>
    <tripinfo id="pt_light_rail_U7:1.0" depart="15.00" departLane="260664667#0_0" departPos="109.60" departPosLat="0.00" departSpeed="0.00" departDelay="0.00" arrival="644.00" arrivalLane="40985104#5_0" arrivalPos="509.53" arrivalPosLat="0.00" arrivalSpeed="27.78" duration="629.00" routeLength="5977.29" waitingTime="37.00" waitingCount="3" stopTime="210.00" timeLoss="184.04" rerouteNo="0" devices="tripinfo_pt_light_rail_U7:1.0 routing_pt_light_rail_U7:1.0" vType="pt_light_rail" speedFactor="1.00" vaporized=""/>
    <tripinfo id="pt_bus_104:3.0" depart="6.00" departLane="355356765_0" departPos="12.10" departPosLat="0.00" departSpeed="0.00" departDelay="0.00" arrival="672.00" arrivalLane="385405404_0" arrivalPos="37.37" arrivalPosLat="0.00" arrivalSpeed="5.43" duration="666.00" routeLength="5533.03" waitingTime="98.00" waitingCount="5" stopTime="61.00" timeLoss="202.18" rerouteNo="1" devices="tripinfo_pt_bus_104:3.0 routing_pt_bus_104:3.0" vType="pt_bus" speedFactor="1.00" vaporized=""/>
    <tripinfo id="pt_light_rail_U9:0.1" depart="615.00" departLane="4338256_0" departPos="95.37" departPosLat="0.00" departSpeed="0.00" departDelay="0.00" arrival="855.00" arrivalLane="172027782#8_0" arrivalPos="286.44" arrivalPosLat="0.00" arrivalSpeed="27.78" duration="240.00" routeLength="1835.74" waitingTime="0.00" waitingCount="0" stopTime="124.00" timeLoss="49.74" rerouteNo="0" devices="tripinfo_pt_light_rail_U9:0.1 routing_pt_light_rail_U9:0.1" vType="pt_light_rail" speedFactor="1.00" vaporized=""/>
    <tripinfo id="pt_bus_119:1.0" depart="0.00" departLane="231875718_0" departPos="12.10" departPosLat="0.00" departSpeed="0.00" departDelay="0.00" arrival="905.00" arrivalLane="268558823#1_0" arrivalPos="19.31" arrivalPosLat="0.00" arrivalSpeed="0.85" duration="905.00" routeLength="4259.51" waitingTime="176.00" waitingCount="9" stopTime="259.00" timeLoss="307.37" rerouteNo="0" devices="tripinfo_pt_bus_119:1.0 routing_pt_bus_119:1.0" vType="pt_bus" speedFactor="1.00" vaporized=""/>
    <tripinfo id="pt_bus_120:1.0" depart="6.00" departLane="231875718_0" departPos="12.10" departPosLat="0.00" departSpeed="0.00" departDelay="1.00" arrival="932.00" arrivalLane="384972991#1_0" arrivalPos="28.43" arrivalPosLat="0.00" arrivalSpeed="0.83" duration="926.00" routeLength="4274.28" waitingTime="179.00" waitingCount="12" stopTime="257.00" timeLoss="327.95" rerouteNo="0" devices="tripinfo_pt_bus_120:1.0 routing_pt_bus_120:1.0" vType="pt_bus" speedFactor="1.00" vaporized=""/>
    <tripinfo id="pt_light_rail_U9:1.1" depart="652.00" departLane="68552415#0_0" departPos="109.60" departPosLat="0.00" departSpeed="0.00" departDelay="0.00" arrival="943.00" arrivalLane="172027783_0" arrivalPos="58.11" arrivalPosLat="0.00" arrivalSpeed="1.00" duration="291.00" routeLength="1820.23" waitingTime="1.00" waitingCount="1" stopTime="183.00" timeLoss="42.44" rerouteNo="0" devices="tripinfo_pt_light_rail_U9:1.1 routing_pt_light_rail_U9:1.1" vType="pt_light_rail" speedFactor="1.00" vaporized=""/>
    <tripinfo id="pt_bus_109:0.0" depart="0.00" departLane="-156260258_0" departPos="12.10" departPosLat="0.00" departSpeed="0.00" departDelay="0.00" arrival="960.00" arrivalLane="24508759#6_0" arrivalPos="0.20" arrivalPosLat="0.00" arrivalSpeed="0.98" duration="960.00" routeLength="4483.87" waitingTime="86.00" waitingCount="9" stopTime="319.00" timeLoss="212.40" rerouteNo="0" devices="tripinfo_pt_bus_109:0.0 routing_pt_bus_109:0.0" vType="pt_bus" speedFactor="1.00" vaporized=""/>
    <tripinfo id="pt_bus_X20:0.0" depart="0.00" departLane="50257938#0_0" departPos="12.10" departPosLat="0.00" departSpeed="0.00" departDelay="0.00" arrival="992.00" arrivalLane="268558821#1_0" arrivalPos="19.10" arrivalPosLat="0.00" arrivalSpeed="0.64" duration="992.00" routeLength="7317.36" waitingTime="160.00" waitingCount="9" stopTime="134.00" timeLoss="296.75" rerouteNo="1" devices="tripinfo_pt_bus_X20:0.0 routing_pt_bus_X20:0.0" vType="pt_bus" speedFactor="1.00" vaporized=""/>
    <tripinfo id="pt_bus_140:1.0" depart="0.00" departLane="-669561102_0" departPos="12.10" departPosLat="0.00" departSpeed="0.00" departDelay="0.00" arrival="1034.00" arrivalLane="268558821#1_0" arrivalPos="19.10" arrivalPosLat="0.00" arrivalSpeed="1.08" duration="1034.00" routeLength="5633.55" waitingTime="274.00" waitingCount="16" stopTime="183.00" timeLoss="451.06" rerouteNo="0" devices="tripinfo_pt_bus_140:1.0 routing_pt_bus_140:1.0" vType="pt_bus" speedFactor="1.00" vaporized=""/>
    <tripinfo id="pt_bus_113:3.0" depart="0.00" departLane="-26969221#3_0" departPos="12.10" departPosLat="0.00" departSpeed="0.00" departDelay="0.00" arrival="1036.00" arrivalLane="316354392_0" arrivalPos="30.26" arrivalPosLat="0.00" arrivalSpeed="0.00" duration="1036.00" routeLength="3558.17" waitingTime="422.00" waitingCount="11" stopTime="190.00" timeLoss="548.95" rerouteNo="0" devices="tripinfo_pt_bus_113:3.0 routing_pt_bus_113:3.0" vType="pt_bus" speedFactor="1.00" vaporized="teleport"/>
    <tripinfo id="pt_bus_105:1.0" depart="6.00" departLane="-386500268#1_0" departPos="7.59" departPosLat="0.00" departSpeed="0.00" departDelay="1.00" arrival="1076.00" arrivalLane="675674221_0" arrivalPos="28.54" arrivalPosLat="0.00" arrivalSpeed="0.86" duration="1070.00" routeLength="4203.20" waitingTime="191.00" waitingCount="12" stopTime="279.00" timeLoss="338.28" rerouteNo="0" devices="tripinfo_pt_bus_105:1.0 routing_pt_bus_105:1.0" vType="pt_bus" speedFactor="1.00" vaporized=""/>
    <tripinfo id="pt_bus_138:1.0" depart="6.00" departLane="-26969221#3_0" departPos="12.10" departPosLat="0.00" departSpeed="0.00" departDelay="0.00" arrival="1141.00" arrivalLane="-122124925#0_0" arrivalPos="0.20" arrivalPosLat="0.00" arrivalSpeed="13.12" duration="1135.00" routeLength="9384.24" waitingTime="119.00" waitingCount="5" stopTime="94.00" timeLoss="243.48" rerouteNo="1" devices="tripinfo_pt_bus_138:1.0 routing_pt_bus_138:1.0" vType="pt_bus" speedFactor="1.00" vaporized=""/>
    <tripinfo id="pt_bus_109:1.0" depart="0.00" departLane="-132761917_0" departPos="3.85" departPosLat="0.00" departSpeed="0.00" departDelay="0.00" arrival="1154.00" arrivalLane="-794514059_0" arrivalPos="29.64" arrivalPosLat="0.00" arrivalSpeed="5.37" duration="1154.00" routeLength="4616.15" waitingTime="134.00" waitingCount="11" stopTime="444.00" timeLoss="258.88" rerouteNo="1" devices="tripinfo_pt_bus_109:1.0 routing_pt_bus_109:1.0" vType="pt_bus" speedFactor="1.00" vaporized=""/>
    <tripinfo id="pt_bus_132:2.0" depart="39.00" departLane="1028791820_0" departPos="12.10" departPosLat="0.00" departSpeed="0.00" departDelay="0.00" arrival="1155.00" arrivalLane="-23059671#0_0" arrivalPos="82.19" arrivalPosLat="0.00" arrivalSpeed="8.24" duration="1116.00" routeLength="5261.25" waitingTime="27.00" waitingCount="7" stopTime="442.00" timeLoss="184.08" rerouteNo="1" devices="tripinfo_pt_bus_132:2.0 routing_pt_bus_132:2.0" vType="pt_bus" speedFactor="1.00" vaporized=""/>
    <tripinfo id="pt_bus_105:0.0" depart="0.00" departLane="675674220#0_0" departPos="2.95" departPosLat="0.00" departSpeed="0.00" departDelay="0.00" arrival="1233.00" arrivalLane="-385405404_0" arrivalPos="37.37" arrivalPosLat="0.00" arrivalSpeed="5.07" duration="1233.00" routeLength="4715.52" waitingTime="199.00" waitingCount="14" stopTime="388.00" timeLoss="361.30" rerouteNo="2" devices="tripinfo_pt_bus_105:0.0 routing_pt_bus_105:0.0" vType="pt_bus" speedFactor="1.00" vaporized=""/>
    <tripinfo id="pt_light_rail_U7:0.1" depart="652.00" departLane="89344777#0_0" departPos="109.60" departPosLat="0.00" departSpeed="0.00" departDelay="0.00" arrival="1243.00" arrivalLane="26946519#1_0" arrivalPos="558.41" arrivalPosLat="0.00" arrivalSpeed="27.78" duration="591.00" routeLength="5963.67" waitingTime="2.00" waitingCount="2" stopTime="283.00" timeLoss="92.33" rerouteNo="0" devices="tripinfo_pt_light_rail_U7:0.1 routing_pt_light_rail_U7:0.1" vType="pt_light_rail" speedFactor="1.00" vaporized=""/>
    <tripinfo id="pt_light_rail_U7:1.1" depart="615.00" departLane="260664667#0_0" departPos="109.60" departPosLat="0.00" departSpeed="0.00" departDelay="0.00" arrival="1244.00" arrivalLane="40985104#5_0" arrivalPos="509.53" arrivalPosLat="0.00" arrivalSpeed="27.78" duration="629.00" routeLength="5977.29" waitingTime="1.00" waitingCount="1" stopTime="274.00" timeLoss="120.04" rerouteNo="0" devices="tripinfo_pt_light_rail_U7:1.1 routing_pt_light_rail_U7:1.1" vType="pt_light_rail" speedFactor="1.00" vaporized=""/>
    <tripinfo id="pt_bus_110:0.0" depart="12.00" departLane="-386500268#1_0" departPos="7.59" departPosLat="0.00" departSpeed="0.00" departDelay="1.00" arrival="1263.00" arrivalLane="-412792775_0" arrivalPos="27.56" arrivalPosLat="0.00" arrivalSpeed="2.23" duration="1251.00" routeLength="4933.78" waitingTime="217.00" waitingCount="14" stopTime="373.00" timeLoss="392.22" rerouteNo="0" devices="tripinfo_pt_bus_110:0.0 routing_pt_bus_110:0.0" vType="pt_bus" speedFactor="1.00" vaporized=""/>
</tripinfos>
