<?xml version="1.0" encoding="UTF-8"?>

<!-- generated on 2023-12-12 13:24:41 by Eclipse SUMO GUI Version 1.19.0
<configuration xmlns:xsi="http://www.w3.org/2001/XMLSchema-instance" xsi:noNamespaceSchemaLocation="http://sumo.dlr.de/xsd/sumoConfiguration.xsd">

    <input>
        <net-file value="Without_transport\osm.net.xml"/>
        <route-files value="Without_transport\osm_pt.rou.xml"/>
        <additional-files value="Without_transport\osm_polygons.add.xml,Without_transport\basic.vType.xml,Without_transport\osm_stops.add.xml,Without_transport\osm_complete_parking_areas.add.xml,Without_transport\         osm_parking_rerouters.add.xml,Without_transport\osm_taxi_stands.add.xml,Without_transport\osm_taxi_rerouters.add.xml,Without_transport\ data.rou.xml"/>
    </input>

    <output>
        <output-prefix value="output."/>
        <summary-output value="Without_transport\summary.xml"/>
        <person-summary-output value="Without_transport\person.summary.xml"/>
        <tripinfo-output value="Without_transport\tripinfo.xml"/>
        <tripinfo-output.write-unfinished value="false"/>
        <statistic-output value="Without_transport\statistics.xml"/>
    </output>

    <time>
        <begin value="0.0"/>
        <end value="86400.0"/>
        <step-length value="1"/>
    </time>

    <processing>
        <lateral-resolution value="0.8"/>
        <ignore-junction-blocker value="60"/>
        <ignore-route-errors value="true"/>
        <collision.action value="teleport"/>
        <time-to-teleport value="300"/>
        <max-depart-delay value="900"/>
        <time-to-impatience value="120"/>
        <parking.maneuver value="true"/>
        <pedestrian.model value="striping"/>
        <pedestrian.striping.stripe-width value="0.55"/>
        <pedestrian.striping.dawdling value="0.2"/>
        <pedestrian.striping.jamtime value="60"/>
        <pedestrian.striping.jamtime.crossing value="10"/>
        <pedestrian.striping.reserve-oncoming value="0.25"/>
        <pedestrian.striping.reserve-oncoming.junctions value="0.34"/>
        <ride.stop-tolerance value="25"/>
    </processing>

    <routing>
        <routing-algorithm value="astar"/>
        <persontrip.walkfactor value="0.75"/>
        <persontrip.transfer.car-walk value="parkingAreas,allJunctions"/>
        <persontrip.transfer.taxi-walk value="parkingAreas,allJunctions"/>
        <persontrip.transfer.walk-taxi value="parkingAreas,allJunctions"/>
        <persontrip.taxi.waiting-time value="300"/>
        <device.rerouting.probability value="1"/>
        <device.rerouting.period value="300"/>
        <device.rerouting.pre-period value="300"/>
        <device.rerouting.bike-speeds value="true"/>
        <person-device.rerouting.probability value="1"/>
        <person-device.rerouting.period value="300"/>
    </routing>

    <report>
        <verbose value="true"/>
        <no-warnings value="false"/>
        <duration-log.disable value="false"/>
        <duration-log.statistics value="true"/>
        <no-step-log value="false"/>
    </report>

    <taxi_device>
        <device.taxi.dispatch-algorithm value="greedy"/>
        <device.taxi.dispatch-algorithm.output value="Without_transport\taxi.dispatch.xml"/>
        <device.taxi.dispatch-period value="60"/>
        <device.taxi.idle-algorithm value="stop"/>
        <device.taxi.idle-algorithm.output value="Without_transport\taxi.idle.xml"/>
    </taxi_device>

    <traci_server>
        <remote-port value="58471"/>
    </traci_server>

    <random_number>
        <seed value="42"/>
    </random_number>

    <gui_only>
        <gui-settings-file value="Without_transport\default-gui.xml"/>
    </gui_only>

</configuration>
-->

<tripinfos xmlns:xsi="http://www.w3.org/2001/XMLSchema-instance" xsi:noNamespaceSchemaLocation="http://sumo.dlr.de/xsd/tripinfo_file.xsd">
    <tripinfo id="p1_0" depart="0.00" departLane="27246564_1" departPos="5.10" departPosLat="0.00" departSpeed="0.00" departDelay="0.00" arrival="770.00" arrivalLane="-32819877#7_1" arrivalPos="56.79" arrivalPosLat="0.00" arrivalSpeed="0.37" duration="770.00" routeLength="7004.96" waitingTime="95.00" waitingCount="7" stopTime="0.00" timeLoss="173.92" rerouteNo="1" devices="tripinfo_p1_0 routing_p1_0 person_p1_0" vType="passenger2b" speedFactor="0.99" vaporized=""/>
    <tripinfo id="p2_0" depart="0.00" departLane="31155481#0_1" departPos="5.10" departPosLat="0.00" departSpeed="0.00" departDelay="0.00" arrival="875.00" arrivalLane="-386500264#13_1" arrivalPos="190.73" arrivalPosLat="0.00" arrivalSpeed="0.28" duration="875.00" routeLength="7149.00" waitingTime="241.00" waitingCount="10" stopTime="0.00" timeLoss="336.67" rerouteNo="1" devices="tripinfo_p2_0 routing_p2_0 person_p2_0" vType="passenger2b" speedFactor="1.16" vaporized=""/>
    <tripinfo id="p9_0" depart="0.00" departLane="32808778#0_0" departPos="1.70" departPosLat="0.00" departSpeed="0.00" departDelay="0.00" arrival="1168.00" arrivalLane="-30998701#1_1" arrivalPos="30.27" arrivalPosLat="-1.27" arrivalSpeed="0.12" duration="1168.00" routeLength="4736.04" waitingTime="14.00" waitingCount="2" stopTime="0.00" timeLoss="104.27" rerouteNo="1" devices="tripinfo_p9_0 routing_p9_0 person_p9_0" vType="bicycle" speedFactor="0.82" vaporized=""/>
    <tripinfo id="p3_0" depart="0.00" departLane="-242488283_0" departPos="1.70" departPosLat="0.00" departSpeed="0.00" departDelay="0.00" arrival="1774.00" arrivalLane="31155481#0_1" arrivalPos="19.96" arrivalPosLat="-1.27" arrivalSpeed="0.20" duration="1774.00" routeLength="8815.42" waitingTime="57.00" waitingCount="7" stopTime="0.00" timeLoss="188.97" rerouteNo="2" devices="tripinfo_p3_0 routing_p3_0 person_p3_0" vType="bicycle" speedFactor="1.00" vaporized=""/>
    <personinfo id="p7" depart="0.00" type="DEFAULT_PEDTYPE" speedFactor="0.88">
        <walk depart="0.00" departPos="0.00" arrival="803.00" arrivalPos="0.00" duration="803.00" routeLength="878.70" timeLoss="85.04" maxSpeed="1.22"/>
        <access stop="-3933810879" depart="803.00" arrival="816.00" duration="13.00" routeLength="15.95"/>
        <access stop="-3933810879" depart="816.00" arrival="825.00" duration="9.00" routeLength="12.12"/>
        <walk depart="825.00" departPos="1.90" arrival="1627.00" arrivalPos="17.46" duration="802.00" routeLength="863.23" timeLoss="96.69" maxSpeed="1.22"/>
        <stop duration="1147.00" arrival="2774.00" arrivalPos="17.46" actType="singing"/>
        <walk depart="2774.00" departPos="17.46" arrival="-1" arrivalPos="-1" duration="0.00" routeLength="-1" timeLoss="0.00" maxSpeed="1.22"/>
        <stop duration="0.00" arrival="-0.00" arrivalPos="13.78" actType="singing"/>
        <stop duration="0.00" arrival="-0.00" arrivalPos="76.23" actType="singing"/>
    </personinfo>
    <tripinfo id="p2_0" depart="3028.00" departLane="952667969_0" departPos="70.19" departPosLat="0.00" departSpeed="0.00" departDelay="0.00" arrival="4554.00" arrivalLane="31155481#0_1" arrivalPos="19.96" arrivalPosLat="-1.27" arrivalSpeed="1.79" duration="1526.00" routeLength="6747.67" waitingTime="181.00" waitingCount="10" stopTime="0.00" timeLoss="299.51" rerouteNo="1" devices="tripinfo_p2_0 routing_p2_0 person_p2_0" vType="bicycle" speedFactor="0.99" vaporized=""/>
</tripinfos>
