<?xml version="1.0" encoding="UTF-8"?>

<!-- generated on 2024-01-30 15:34:16 by Eclipse SUMO GUI Version 1.19.0
<configuration xmlns:xsi="http://www.w3.org/2001/XMLSchema-instance" xsi:noNamespaceSchemaLocation="http://sumo.dlr.de/xsd/sumoConfiguration.xsd">

    <input>
        <net-file value="Without_transport\osm.net.xml"/>
        <route-files value="Without_transport\osm_pt.rou.xml"/>
        <additional-files value="Without_transport\osm_polygons.add.xml,Without_transport\basic.vType.xml,Without_transport\osm_stops.add.xml,Without_transport\osm_complete_parking_areas.add.xml,Without_transport\         osm_parking_rerouters.add.xml,Without_transport\osm_taxi_stands.add.xml,Without_transport\osm_taxi_rerouters.add.xml,Without_transport\ data.rou.xml"/>
    </input>

    <output>
        <output-prefix value="output."/>
        <summary-output value="Without_transport\summary.xml"/>
        <person-summary-output value="Without_transport\person.summary.xml"/>
        <tripinfo-output value="Without_transport\tripinfo.xml"/>
        <tripinfo-output.write-unfinished value="false"/>
        <statistic-output value="Without_transport\statistics.xml"/>
    </output>

    <time>
        <begin value="0.0"/>
        <end value="86400.0"/>
        <step-length value="1"/>
    </time>

    <processing>
        <lateral-resolution value="0.8"/>
        <ignore-junction-blocker value="60"/>
        <ignore-route-errors value="true"/>
        <collision.action value="teleport"/>
        <time-to-teleport value="300"/>
        <max-depart-delay value="900"/>
        <time-to-impatience value="120"/>
        <parking.maneuver value="true"/>
        <pedestrian.model value="striping"/>
        <pedestrian.striping.stripe-width value="0.55"/>
        <pedestrian.striping.dawdling value="0.2"/>
        <pedestrian.striping.jamtime value="60"/>
        <pedestrian.striping.jamtime.crossing value="10"/>
        <pedestrian.striping.reserve-oncoming value="0.25"/>
        <pedestrian.striping.reserve-oncoming.junctions value="0.34"/>
        <ride.stop-tolerance value="25"/>
    </processing>

    <routing>
        <routing-algorithm value="astar"/>
        <persontrip.walkfactor value="0.75"/>
        <persontrip.transfer.car-walk value="parkingAreas,allJunctions"/>
        <persontrip.transfer.taxi-walk value="parkingAreas,allJunctions"/>
        <persontrip.transfer.walk-taxi value="parkingAreas,allJunctions"/>
        <persontrip.taxi.waiting-time value="300"/>
        <device.rerouting.probability value="1"/>
        <device.rerouting.period value="300"/>
        <device.rerouting.pre-period value="300"/>
        <device.rerouting.bike-speeds value="true"/>
        <person-device.rerouting.probability value="1"/>
        <person-device.rerouting.period value="300"/>
    </routing>

    <report>
        <verbose value="true"/>
        <no-warnings value="false"/>
        <duration-log.disable value="false"/>
        <duration-log.statistics value="true"/>
        <no-step-log value="false"/>
    </report>

    <taxi_device>
        <device.taxi.dispatch-algorithm value="greedy"/>
        <device.taxi.dispatch-algorithm.output value="Without_transport\taxi.dispatch.xml"/>
        <device.taxi.dispatch-period value="60"/>
        <device.taxi.idle-algorithm value="stop"/>
        <device.taxi.idle-algorithm.output value="Without_transport\taxi.idle.xml"/>
    </taxi_device>

    <traci_server>
        <remote-port value="51103"/>
    </traci_server>

    <random_number>
        <seed value="42"/>
    </random_number>

    <gui_only>
        <gui-settings-file value="Without_transport\default-gui.xml"/>
    </gui_only>

</configuration>
-->

<tripinfos xmlns:xsi="http://www.w3.org/2001/XMLSchema-instance" xsi:noNamespaceSchemaLocation="http://sumo.dlr.de/xsd/tripinfo_file.xsd">
    <personinfo id="p2" depart="0.00" type="DEFAULT_PEDTYPE" speedFactor="1.16">
        <walk depart="0.00" departPos="0.00" arrival="-1" arrivalPos="-1" duration="0.00" routeLength="-1" timeLoss="0.00" maxSpeed="1.61"/>
        <stop duration="0.00" arrival="-0.00" arrivalPos="61.02" actType="singing"/>
        <stop duration="0.00" arrival="-0.00" arrivalPos="15.16" actType="singing"/>
        <stop duration="0.00" arrival="-0.00" arrivalPos="61.02" actType="singing"/>
    </personinfo>
    <personinfo id="p4" depart="0.00" type="DEFAULT_PEDTYPE" speedFactor="0.93">
        <walk depart="0.00" departPos="0.00" arrival="-1" arrivalPos="-1" duration="0.00" routeLength="-1" timeLoss="0.00" maxSpeed="1.29"/>
        <stop duration="0.00" arrival="-0.00" arrivalPos="12.79" actType="singing"/>
        <stop duration="0.00" arrival="-0.00" arrivalPos="104.67" actType="singing"/>
        <stop duration="0.00" arrival="-0.00" arrivalPos="7.72" actType="singing"/>
    </personinfo>
    <tripinfo id="p0_0" depart="0.00" departLane="30349599#1_0" departPos="5.10" departPosLat="0.00" departSpeed="0.00" departDelay="0.00" arrival="354.00" arrivalLane="488705428#2_1" arrivalPos="0.20" arrivalPosLat="0.00" arrivalSpeed="0.16" duration="354.00" routeLength="5340.16" waitingTime="25.00" waitingCount="4" stopTime="0.00" timeLoss="58.70" rerouteNo="1" devices="tripinfo_p0_0 routing_p0_0 person_p0_0" vType="passenger1" speedFactor="1.08" vaporized=""/>
    <tripinfo id="p1_0" depart="3.00" departLane="30349599#1_0" departPos="5.10" departPosLat="0.00" departSpeed="0.00" departDelay="3.00" arrival="543.00" arrivalLane="921020467#0_2" arrivalPos="107.86" arrivalPosLat="0.00" arrivalSpeed="0.16" duration="540.00" routeLength="7006.02" waitingTime="130.00" waitingCount="3" stopTime="0.00" timeLoss="170.17" rerouteNo="1" devices="tripinfo_p1_0 routing_p1_0 person_p1_0" vType="passenger3" speedFactor="1.03" vaporized=""/>
    <personinfo id="p0" depart="0.00" type="DEFAULT_PEDTYPE" speedFactor="0.95">
        <ride waitingTime="0.00" vehicle="p0_0" depart="0.00" arrival="354.00" arrivalPos="0.20" duration="354.00" routeLength="5340.16" timeLoss="58.70"/>
        <walk depart="354.00" departPos="0.00" arrival="408.00" arrivalPos="0.71" duration="54.00" routeLength="63.18" timeLoss="6.03" maxSpeed="1.32"/>
        <stop duration="706.00" arrival="1114.00" arrivalPos="0.71" actType="singing"/>
        <walk depart="1114.00" departPos="0.71" arrival="-1" arrivalPos="-1" duration="0.00" routeLength="-1" timeLoss="0.00" maxSpeed="1.32"/>
        <stop duration="0.00" arrival="-0.00" arrivalPos="20.02" actType="singing"/>
        <stop duration="0.00" arrival="-0.00" arrivalPos="104.88" actType="singing"/>
    </personinfo>
</tripinfos>
