<?xml version="1.0" encoding="UTF-8"?>

<!-- generated on 2024-03-02 14:38:33 by Eclipse SUMO GUI Version 1.19.0
<configuration xmlns:xsi="http://www.w3.org/2001/XMLSchema-instance" xsi:noNamespaceSchemaLocation="http://sumo.dlr.de/xsd/sumoConfiguration.xsd">

    <input>
        <net-file value="C:\Users\sader\PycharmProjects\OOP_Test\Without_transport\crr.net.xml"/>
        <route-files value="C:\Users\sader\PycharmProjects\OOP_Test\Without_transport\flows.rou.xml"/>
        <additional-files value="C:\Users\sader\PycharmProjects\OOP_Test\Without_transport\osm_polygons.add.xml,C:\Users\sader\PycharmProjects\OOP_Test\Without_transport\ basic.vType.xml,C:\Users\sader\PycharmProjects\OOP_Test\Without_transport\ additional.xml,C:\Users\sader\PycharmProjects\OOP_Test\Without_transport\ data.rou.xml"/>
    </input>

    <output>
        <output-prefix value="output."/>
        <summary-output value="C:\Users\sader\PycharmProjects\OOP_Test\Without_transport\summary.xml"/>
        <person-summary-output value="C:\Users\sader\PycharmProjects\OOP_Test\Without_transport\person.summary.xml"/>
        <tripinfo-output value="C:\Users\sader\PycharmProjects\OOP_Test\Without_transport\tripinfo.xml"/>
        <tripinfo-output.write-unfinished value="false"/>
        <statistic-output value="C:\Users\sader\PycharmProjects\OOP_Test\Without_transport\statistics.xml"/>
    </output>

    <processing>
        <lateral-resolution value="0.8"/>
        <ignore-junction-blocker value="60"/>
        <ignore-route-errors value="true"/>
        <collision.action value="teleport"/>
        <time-to-teleport value="300"/>
        <max-depart-delay value="900"/>
        <time-to-impatience value="120"/>
        <parking.maneuver value="true"/>
        <pedestrian.model value="striping"/>
        <pedestrian.striping.stripe-width value="0.55"/>
        <pedestrian.striping.dawdling value="0.2"/>
        <pedestrian.striping.jamtime value="60"/>
        <pedestrian.striping.jamtime.crossing value="10"/>
        <pedestrian.striping.reserve-oncoming value="0.25"/>
        <pedestrian.striping.reserve-oncoming.junctions value="0.34"/>
        <ride.stop-tolerance value="25"/>
    </processing>

    <routing>
        <routing-algorithm value="astar"/>
        <persontrip.walkfactor value="0.75"/>
        <persontrip.transfer.car-walk value="parkingAreas,allJunctions"/>
        <persontrip.transfer.taxi-walk value="parkingAreas,allJunctions"/>
        <persontrip.transfer.walk-taxi value="parkingAreas,allJunctions"/>
        <persontrip.taxi.waiting-time value="300"/>
        <device.rerouting.probability value="1"/>
        <device.rerouting.period value="300"/>
        <device.rerouting.pre-period value="300"/>
        <device.rerouting.bike-speeds value="true"/>
        <person-device.rerouting.probability value="1"/>
        <person-device.rerouting.period value="300"/>
    </routing>

    <report>
        <verbose value="true"/>
        <no-warnings value="false"/>
        <duration-log.disable value="false"/>
        <duration-log.statistics value="true"/>
        <no-step-log value="false"/>
    </report>

    <taxi_device>
        <device.taxi.dispatch-algorithm value="greedy"/>
        <device.taxi.dispatch-algorithm.output value="C:\Users\sader\PycharmProjects\OOP_Test\Without_transport\taxi.dispatch.xml"/>
        <device.taxi.dispatch-period value="60"/>
        <device.taxi.idle-algorithm value="stop"/>
        <device.taxi.idle-algorithm.output value="C:\Users\sader\PycharmProjects\OOP_Test\Without_transport\taxi.idle.xml"/>
    </taxi_device>

    <random_number>
        <seed value="42"/>
    </random_number>

    <gui_only>
        <gui-settings-file value="C:\Users\sader\PycharmProjects\OOP_Test\Without_transport\default-gui.xml"/>
    </gui_only>

</configuration>
-->

<tripinfos xmlns:xsi="http://www.w3.org/2001/XMLSchema-instance" xsi:noNamespaceSchemaLocation="http://sumo.dlr.de/xsd/tripinfo_file.xsd">
    <tripinfo id="pt_light_rail_U13:0.0" depart="0.00" departLane="4338256_0" departPos="95.37" departPosLat="0.00" departSpeed="0.00" departDelay="0.00" arrival="207.00" arrivalLane="172027782#8_0" arrivalPos="286.44" arrivalPosLat="0.00" arrivalSpeed="27.78" duration="207.00" routeLength="1835.74" waitingTime="1.00" waitingCount="1" stopTime="90.00" timeLoss="50.74" rerouteNo="0" devices="tripinfo_pt_light_rail_U13:0.0 routing_pt_light_rail_U13:0.0" vType="pt_light_rail" speedFactor="1.00" vaporized=""/>
    <tripinfo id="pt_light_rail_U13:1.0" depart="0.00" departLane="68552415#0_0" departPos="109.60" departPosLat="0.00" departSpeed="0.00" departDelay="0.00" arrival="228.00" arrivalLane="172027783_0" arrivalPos="58.11" arrivalPosLat="0.00" arrivalSpeed="1.00" duration="228.00" routeLength="1820.23" waitingTime="1.00" waitingCount="1" stopTime="120.00" timeLoss="42.44" rerouteNo="0" devices="tripinfo_pt_light_rail_U13:1.0 routing_pt_light_rail_U13:1.0" vType="pt_light_rail" speedFactor="1.00" vaporized=""/>
    <tripinfo id="pt_light_rail_U9:0.0" depart="15.00" departLane="4338256_0" departPos="95.37" departPosLat="0.00" departSpeed="0.00" departDelay="0.00" arrival="255.00" arrivalLane="172027782#8_0" arrivalPos="286.44" arrivalPosLat="0.00" arrivalSpeed="27.78" duration="240.00" routeLength="1835.74" waitingTime="51.00" waitingCount="1" stopTime="60.00" timeLoss="113.74" rerouteNo="0" devices="tripinfo_pt_light_rail_U9:0.0 routing_pt_light_rail_U9:0.0" vType="pt_light_rail" speedFactor="1.00" vaporized=""/>
    <tripinfo id="pt_bus_61:1.0" depart="0.00" departLane="431444776_0" departPos="12.10" departPosLat="0.00" departSpeed="0.00" departDelay="0.00" arrival="278.00" arrivalLane="-676917368#0_0" arrivalPos="19.04" arrivalPosLat="0.00" arrivalSpeed="1.04" duration="278.00" routeLength="1041.77" waitingTime="39.00" waitingCount="4" stopTime="118.00" timeLoss="79.28" rerouteNo="0" devices="tripinfo_pt_bus_61:1.0 routing_pt_bus_61:1.0" vType="pt_bus" speedFactor="1.00" vaporized=""/>
    <tripinfo id="pt_bus_61:0.0" depart="0.00" departLane="-26263195#1_0" departPos="1.14" departPosLat="0.00" departSpeed="0.00" departDelay="0.00" arrival="284.00" arrivalLane="-431444776_0" arrivalPos="34.49" arrivalPosLat="0.00" arrivalSpeed="1.73" duration="284.00" routeLength="1141.19" waitingTime="17.00" waitingCount="4" stopTime="121.00" timeLoss="79.06" rerouteNo="0" devices="tripinfo_pt_bus_61:0.0 routing_pt_bus_61:0.0" vType="pt_bus" speedFactor="1.00" vaporized=""/>
    <tripinfo id="pt_bus_121:0.0" depart="0.00" departLane="-27531049#6_0" departPos="10.68" departPosLat="0.00" departSpeed="0.00" departDelay="0.00" arrival="285.00" arrivalLane="207210285_0" arrivalPos="23.68" arrivalPosLat="0.00" arrivalSpeed="13.69" duration="285.00" routeLength="2044.43" waitingTime="1.00" waitingCount="1" stopTime="95.00" timeLoss="42.01" rerouteNo="0" devices="tripinfo_pt_bus_121:0.0 routing_pt_bus_121:0.0" vType="pt_bus" speedFactor="1.00" vaporized=""/>
    <tripinfo id="pt_bus_121:1.0" depart="0.00" departLane="207210286_0" departPos="12.10" departPosLat="0.00" departSpeed="0.00" departDelay="0.00" arrival="329.00" arrivalLane="392589607#3_0" arrivalPos="0.20" arrivalPosLat="0.00" arrivalSpeed="0.74" duration="329.00" routeLength="2179.39" waitingTime="0.00" waitingCount="0" stopTime="128.00" timeLoss="42.69" rerouteNo="0" devices="tripinfo_pt_bus_121:1.0 routing_pt_bus_121:1.0" vType="pt_bus" speedFactor="1.00" vaporized=""/>
    <tripinfo id="pt_light_rail_U9:1.0" depart="52.00" departLane="68552415#0_0" departPos="109.60" departPosLat="0.00" departSpeed="0.00" departDelay="0.00" arrival="343.00" arrivalLane="172027783_0" arrivalPos="58.11" arrivalPosLat="0.00" arrivalSpeed="1.00" duration="291.00" routeLength="1820.23" waitingTime="58.00" waitingCount="2" stopTime="120.00" timeLoss="105.44" rerouteNo="0" devices="tripinfo_pt_light_rail_U9:1.0 routing_pt_light_rail_U9:1.0" vType="pt_light_rail" speedFactor="1.00" vaporized=""/>
    <tripinfo id="pt_bus_65:0.0" depart="0.00" departLane="-527346555_0" departPos="2.00" departPosLat="0.00" departSpeed="0.00" departDelay="0.00" arrival="414.00" arrivalLane="27607365#2_0" arrivalPos="68.47" arrivalPosLat="0.00" arrivalSpeed="13.65" duration="414.00" routeLength="2087.07" waitingTime="57.00" waitingCount="4" stopTime="125.00" timeLoss="135.69" rerouteNo="0" devices="tripinfo_pt_bus_65:0.0 routing_pt_bus_65:0.0" vType="pt_bus" speedFactor="1.00" vaporized=""/>
    <tripinfo id="pt_bus_65:1.0" depart="0.00" departLane="788566318#0_0" departPos="12.10" departPosLat="0.00" departSpeed="0.00" departDelay="0.00" arrival="471.00" arrivalLane="-676917368#0_0" arrivalPos="19.04" arrivalPosLat="0.00" arrivalSpeed="0.74" duration="471.00" routeLength="1901.34" waitingTime="68.00" waitingCount="5" stopTime="163.00" timeLoss="164.20" rerouteNo="0" devices="tripinfo_pt_bus_65:1.0 routing_pt_bus_65:1.0" vType="pt_bus" speedFactor="1.00" vaporized=""/>
    <tripinfo id="pt_bus_62:0.0" depart="0.00" departLane="570449183#0_0" departPos="12.10" departPosLat="0.00" departSpeed="0.00" departDelay="0.00" arrival="495.00" arrivalLane="-686400891#0_0" arrivalPos="8.78" arrivalPosLat="0.00" arrivalSpeed="13.55" duration="495.00" routeLength="2916.80" waitingTime="46.00" waitingCount="3" stopTime="158.00" timeLoss="124.86" rerouteNo="0" devices="tripinfo_pt_bus_62:0.0 routing_pt_bus_62:0.0" vType="pt_bus" speedFactor="1.00" vaporized=""/>
    <tripinfo id="pt_bus_816:0.0" depart="0.00" departLane="161599839#0_0" departPos="12.10" departPosLat="0.00" departSpeed="0.00" departDelay="0.00" arrival="513.00" arrivalLane="12511795_0" arrivalPos="934.48" arrivalPosLat="0.00" arrivalSpeed="19.43" duration="513.00" routeLength="3743.63" waitingTime="24.00" waitingCount="5" stopTime="124.00" timeLoss="91.50" rerouteNo="0" devices="tripinfo_pt_bus_816:0.0 routing_pt_bus_816:0.0" vType="pt_bus" speedFactor="1.00" vaporized=""/>
    <tripinfo id="pt_light_rail_U8:0.0" depart="0.00" departLane="89344777#0_0" departPos="109.60" departPosLat="0.00" departSpeed="0.00" departDelay="0.00" arrival="518.00" arrivalLane="26946519#1_0" arrivalPos="558.41" arrivalPosLat="0.00" arrivalSpeed="27.78" duration="518.00" routeLength="5963.67" waitingTime="2.00" waitingCount="2" stopTime="210.00" timeLoss="92.33" rerouteNo="0" devices="tripinfo_pt_light_rail_U8:0.0 routing_pt_light_rail_U8:0.0" vType="pt_light_rail" speedFactor="1.00" vaporized=""/>
    <tripinfo id="pt_bus_816:1.0" depart="0.00" departLane="-12511795_0" departPos="12.10" departPosLat="0.00" departSpeed="0.00" departDelay="0.00" arrival="546.00" arrivalLane="29146499#2_0" arrivalPos="22.94" arrivalPosLat="0.00" arrivalSpeed="0.75" duration="546.00" routeLength="3677.97" waitingTime="22.00" waitingCount="2" stopTime="169.00" timeLoss="86.09" rerouteNo="0" devices="tripinfo_pt_bus_816:1.0 routing_pt_bus_816:1.0" vType="pt_bus" speedFactor="1.00" vaporized=""/>
    <tripinfo id="pt_light_rail_U8:1.0" depart="0.00" departLane="260664667#0_0" departPos="109.60" departPosLat="0.00" departSpeed="0.00" departDelay="0.00" arrival="565.00" arrivalLane="40985104#5_0" arrivalPos="509.53" arrivalPosLat="0.00" arrivalSpeed="27.78" duration="565.00" routeLength="5977.29" waitingTime="1.00" waitingCount="1" stopTime="210.00" timeLoss="120.04" rerouteNo="0" devices="tripinfo_pt_light_rail_U8:1.0 routing_pt_light_rail_U8:1.0" vType="pt_light_rail" speedFactor="1.00" vaporized=""/>
    <tripinfo id="pt_train_RE_5:0.0" depart="0.00" departLane="248760538#0_0" departPos="135.10" departPosLat="0.00" departSpeed="0.00" departDelay="0.00" arrival="594.00" arrivalLane="762092286_0" arrivalPos="326.18" arrivalPosLat="0.00" arrivalSpeed="19.44" duration="594.00" routeLength="11041.48" waitingTime="0.00" waitingCount="0" stopTime="60.00" timeLoss="255.99" rerouteNo="0" devices="tripinfo_pt_train_RE_5:0.0 routing_pt_train_RE_5:0.0" vType="pt_train" speedFactor="1.00" vaporized=""/>
    <tripinfo id="pt_bus_104:2.0" depart="0.00" departLane="355356765_0" departPos="12.10" departPosLat="0.00" departSpeed="0.00" departDelay="0.00" arrival="606.00" arrivalLane="385405404_0" arrivalPos="37.37" arrivalPosLat="0.00" arrivalSpeed="2.62" duration="606.00" routeLength="5533.03" waitingTime="48.00" waitingCount="3" stopTime="66.00" timeLoss="138.35" rerouteNo="1" devices="tripinfo_pt_bus_104:2.0 routing_pt_bus_104:2.0" vType="pt_bus" speedFactor="1.00" vaporized=""/>
    <tripinfo id="pt_bus_62:1.0" depart="0.00" departLane="686400891#0_0" departPos="8.78" departPosLat="0.00" departSpeed="0.00" departDelay="0.00" arrival="631.00" arrivalLane="-570449183#0_0" arrivalPos="238.53" arrivalPosLat="0.00" arrivalSpeed="13.70" duration="631.00" routeLength="3075.85" waitingTime="148.00" waitingCount="9" stopTime="121.00" timeLoss="278.49" rerouteNo="0" devices="tripinfo_pt_bus_62:1.0 routing_pt_bus_62:1.0" vType="pt_bus" speedFactor="1.00" vaporized=""/>
    <tripinfo id="pt_light_rail_U7:0.0" depart="52.00" departLane="89344777#0_0" departPos="109.60" departPosLat="0.00" departSpeed="0.00" departDelay="0.00" arrival="643.00" arrivalLane="26946519#1_0" arrivalPos="558.41" arrivalPosLat="0.00" arrivalSpeed="27.78" duration="591.00" routeLength="5963.67" waitingTime="51.00" waitingCount="4" stopTime="210.00" timeLoss="165.33" rerouteNo="0" devices="tripinfo_pt_light_rail_U7:0.0 routing_pt_light_rail_U7:0.0" vType="pt_light_rail" speedFactor="1.00" vaporized=""/>
    <tripinfo id="pt_light_rail_U7:1.0" depart="15.00" departLane="260664667#0_0" departPos="109.60" departPosLat="0.00" departSpeed="0.00" departDelay="0.00" arrival="644.00" arrivalLane="40985104#5_0" arrivalPos="509.53" arrivalPosLat="0.00" arrivalSpeed="27.78" duration="629.00" routeLength="5977.29" waitingTime="37.00" waitingCount="3" stopTime="210.00" timeLoss="184.04" rerouteNo="0" devices="tripinfo_pt_light_rail_U7:1.0 routing_pt_light_rail_U7:1.0" vType="pt_light_rail" speedFactor="1.00" vaporized=""/>
    <tripinfo id="pt_bus_104:3.0" depart="6.00" departLane="355356765_0" departPos="12.10" departPosLat="0.00" departSpeed="0.00" departDelay="0.00" arrival="672.00" arrivalLane="385405404_0" arrivalPos="37.37" arrivalPosLat="0.00" arrivalSpeed="5.43" duration="666.00" routeLength="5533.03" waitingTime="98.00" waitingCount="5" stopTime="61.00" timeLoss="202.18" rerouteNo="1" devices="tripinfo_pt_bus_104:3.0 routing_pt_bus_104:3.0" vType="pt_bus" speedFactor="1.00" vaporized=""/>
    <tripinfo id="pt_light_rail_U9:0.1" depart="615.00" departLane="4338256_0" departPos="95.37" departPosLat="0.00" departSpeed="0.00" departDelay="0.00" arrival="855.00" arrivalLane="172027782#8_0" arrivalPos="286.44" arrivalPosLat="0.00" arrivalSpeed="27.78" duration="240.00" routeLength="1835.74" waitingTime="0.00" waitingCount="0" stopTime="124.00" timeLoss="49.74" rerouteNo="0" devices="tripinfo_pt_light_rail_U9:0.1 routing_pt_light_rail_U9:0.1" vType="pt_light_rail" speedFactor="1.00" vaporized=""/>
    <tripinfo id="pt_bus_119:1.0" depart="0.00" departLane="231875718_0" departPos="12.10" departPosLat="0.00" departSpeed="0.00" departDelay="0.00" arrival="905.00" arrivalLane="268558823#1_0" arrivalPos="19.31" arrivalPosLat="0.00" arrivalSpeed="0.85" duration="905.00" routeLength="4259.51" waitingTime="176.00" waitingCount="9" stopTime="259.00" timeLoss="307.37" rerouteNo="0" devices="tripinfo_pt_bus_119:1.0 routing_pt_bus_119:1.0" vType="pt_bus" speedFactor="1.00" vaporized=""/>
    <tripinfo id="pt_bus_120:1.0" depart="6.00" departLane="231875718_0" departPos="12.10" departPosLat="0.00" departSpeed="0.00" departDelay="1.00" arrival="932.00" arrivalLane="384972991#1_0" arrivalPos="28.43" arrivalPosLat="0.00" arrivalSpeed="0.83" duration="926.00" routeLength="4274.28" waitingTime="179.00" waitingCount="12" stopTime="257.00" timeLoss="327.95" rerouteNo="0" devices="tripinfo_pt_bus_120:1.0 routing_pt_bus_120:1.0" vType="pt_bus" speedFactor="1.00" vaporized=""/>
    <tripinfo id="pt_light_rail_U9:1.1" depart="652.00" departLane="68552415#0_0" departPos="109.60" departPosLat="0.00" departSpeed="0.00" departDelay="0.00" arrival="943.00" arrivalLane="172027783_0" arrivalPos="58.11" arrivalPosLat="0.00" arrivalSpeed="1.00" duration="291.00" routeLength="1820.23" waitingTime="1.00" waitingCount="1" stopTime="183.00" timeLoss="42.44" rerouteNo="0" devices="tripinfo_pt_light_rail_U9:1.1 routing_pt_light_rail_U9:1.1" vType="pt_light_rail" speedFactor="1.00" vaporized=""/>
    <tripinfo id="pt_bus_109:0.0" depart="0.00" departLane="-156260258_0" departPos="12.10" departPosLat="0.00" departSpeed="0.00" departDelay="0.00" arrival="960.00" arrivalLane="24508759#6_0" arrivalPos="0.20" arrivalPosLat="0.00" arrivalSpeed="0.98" duration="960.00" routeLength="4483.87" waitingTime="86.00" waitingCount="9" stopTime="319.00" timeLoss="212.40" rerouteNo="0" devices="tripinfo_pt_bus_109:0.0 routing_pt_bus_109:0.0 person_pt_bus_109:0.0" vType="pt_bus" speedFactor="1.00" vaporized=""/>
    <tripinfo id="pt_bus_X20:0.0" depart="0.00" departLane="50257938#0_0" departPos="12.10" departPosLat="0.00" departSpeed="0.00" departDelay="0.00" arrival="992.00" arrivalLane="268558821#1_0" arrivalPos="19.10" arrivalPosLat="0.00" arrivalSpeed="0.64" duration="992.00" routeLength="7317.36" waitingTime="160.00" waitingCount="9" stopTime="134.00" timeLoss="296.75" rerouteNo="1" devices="tripinfo_pt_bus_X20:0.0 routing_pt_bus_X20:0.0" vType="pt_bus" speedFactor="1.00" vaporized=""/>
    <tripinfo id="pt_bus_140:1.0" depart="0.00" departLane="-669561102_0" departPos="12.10" departPosLat="0.00" departSpeed="0.00" departDelay="0.00" arrival="1034.00" arrivalLane="268558821#1_0" arrivalPos="19.10" arrivalPosLat="0.00" arrivalSpeed="1.08" duration="1034.00" routeLength="5633.55" waitingTime="274.00" waitingCount="16" stopTime="183.00" timeLoss="451.06" rerouteNo="0" devices="tripinfo_pt_bus_140:1.0 routing_pt_bus_140:1.0" vType="pt_bus" speedFactor="1.00" vaporized=""/>
    <tripinfo id="pt_bus_113:3.0" depart="0.00" departLane="-26969221#3_0" departPos="12.10" departPosLat="0.00" departSpeed="0.00" departDelay="0.00" arrival="1036.00" arrivalLane="316354392_0" arrivalPos="30.26" arrivalPosLat="0.00" arrivalSpeed="0.00" duration="1036.00" routeLength="3558.17" waitingTime="422.00" waitingCount="11" stopTime="190.00" timeLoss="548.95" rerouteNo="0" devices="tripinfo_pt_bus_113:3.0 routing_pt_bus_113:3.0" vType="pt_bus" speedFactor="1.00" vaporized="teleport"/>
    <tripinfo id="pt_bus_105:1.0" depart="6.00" departLane="-386500268#1_0" departPos="7.59" departPosLat="0.00" departSpeed="0.00" departDelay="1.00" arrival="1076.00" arrivalLane="675674221_0" arrivalPos="28.54" arrivalPosLat="0.00" arrivalSpeed="0.86" duration="1070.00" routeLength="4203.20" waitingTime="191.00" waitingCount="12" stopTime="279.00" timeLoss="338.28" rerouteNo="0" devices="tripinfo_pt_bus_105:1.0 routing_pt_bus_105:1.0" vType="pt_bus" speedFactor="1.00" vaporized=""/>
    <tripinfo id="pt_bus_138:1.0" depart="6.00" departLane="-26969221#3_0" departPos="12.10" departPosLat="0.00" departSpeed="0.00" departDelay="0.00" arrival="1141.00" arrivalLane="-122124925#0_0" arrivalPos="0.20" arrivalPosLat="0.00" arrivalSpeed="13.12" duration="1135.00" routeLength="9384.24" waitingTime="119.00" waitingCount="5" stopTime="94.00" timeLoss="243.48" rerouteNo="1" devices="tripinfo_pt_bus_138:1.0 routing_pt_bus_138:1.0" vType="pt_bus" speedFactor="1.00" vaporized=""/>
    <tripinfo id="pt_bus_109:1.0" depart="0.00" departLane="-132761917_0" departPos="3.85" departPosLat="0.00" departSpeed="0.00" departDelay="0.00" arrival="1153.00" arrivalLane="-794514059_0" arrivalPos="29.64" arrivalPosLat="0.00" arrivalSpeed="5.28" duration="1153.00" routeLength="4616.15" waitingTime="134.00" waitingCount="11" stopTime="444.00" timeLoss="258.60" rerouteNo="1" devices="tripinfo_pt_bus_109:1.0 routing_pt_bus_109:1.0" vType="pt_bus" speedFactor="1.00" vaporized=""/>
    <tripinfo id="pt_bus_132:2.0" depart="39.00" departLane="1028791820_0" departPos="12.10" departPosLat="0.00" departSpeed="0.00" departDelay="0.00" arrival="1155.00" arrivalLane="-23059671#0_0" arrivalPos="82.19" arrivalPosLat="0.00" arrivalSpeed="8.24" duration="1116.00" routeLength="5261.25" waitingTime="27.00" waitingCount="7" stopTime="442.00" timeLoss="184.05" rerouteNo="1" devices="tripinfo_pt_bus_132:2.0 routing_pt_bus_132:2.0" vType="pt_bus" speedFactor="1.00" vaporized=""/>
    <tripinfo id="pt_bus_105:0.0" depart="0.00" departLane="675674220#0_0" departPos="2.95" departPosLat="0.00" departSpeed="0.00" departDelay="0.00" arrival="1233.00" arrivalLane="-385405404_0" arrivalPos="37.37" arrivalPosLat="0.00" arrivalSpeed="5.28" duration="1233.00" routeLength="4715.52" waitingTime="199.00" waitingCount="14" stopTime="388.00" timeLoss="360.96" rerouteNo="2" devices="tripinfo_pt_bus_105:0.0 routing_pt_bus_105:0.0" vType="pt_bus" speedFactor="1.00" vaporized=""/>
    <tripinfo id="pt_light_rail_U7:0.1" depart="652.00" departLane="89344777#0_0" departPos="109.60" departPosLat="0.00" departSpeed="0.00" departDelay="0.00" arrival="1243.00" arrivalLane="26946519#1_0" arrivalPos="558.41" arrivalPosLat="0.00" arrivalSpeed="27.78" duration="591.00" routeLength="5963.67" waitingTime="2.00" waitingCount="2" stopTime="283.00" timeLoss="92.33" rerouteNo="0" devices="tripinfo_pt_light_rail_U7:0.1 routing_pt_light_rail_U7:0.1" vType="pt_light_rail" speedFactor="1.00" vaporized=""/>
    <tripinfo id="pt_light_rail_U7:1.1" depart="615.00" departLane="260664667#0_0" departPos="109.60" departPosLat="0.00" departSpeed="0.00" departDelay="0.00" arrival="1244.00" arrivalLane="40985104#5_0" arrivalPos="509.53" arrivalPosLat="0.00" arrivalSpeed="27.78" duration="629.00" routeLength="5977.29" waitingTime="1.00" waitingCount="1" stopTime="274.00" timeLoss="120.04" rerouteNo="0" devices="tripinfo_pt_light_rail_U7:1.1 routing_pt_light_rail_U7:1.1" vType="pt_light_rail" speedFactor="1.00" vaporized=""/>
    <tripinfo id="pt_bus_110:0.0" depart="12.00" departLane="-386500268#1_0" departPos="7.59" departPosLat="0.00" departSpeed="0.00" departDelay="1.00" arrival="1264.00" arrivalLane="-412792775_0" arrivalPos="27.56" arrivalPosLat="0.00" arrivalSpeed="2.65" duration="1252.00" routeLength="4933.78" waitingTime="217.00" waitingCount="14" stopTime="374.00" timeLoss="392.09" rerouteNo="0" devices="tripinfo_pt_bus_110:0.0 routing_pt_bus_110:0.0" vType="pt_bus" speedFactor="1.00" vaporized=""/>
    <tripinfo id="pt_bus_114:1.0" depart="0.00" departLane="-57852606#1_0" departPos="12.10" departPosLat="0.00" departSpeed="0.00" departDelay="0.00" arrival="1379.00" arrivalLane="384972991#1_0" arrivalPos="28.43" arrivalPosLat="0.00" arrivalSpeed="0.00" duration="1379.00" routeLength="6518.59" waitingTime="538.00" waitingCount="13" stopTime="241.00" timeLoss="688.13" rerouteNo="0" devices="tripinfo_pt_bus_114:1.0 routing_pt_bus_114:1.0" vType="pt_bus" speedFactor="1.00" vaporized="teleport"/>
    <tripinfo id="pt_light_rail_U13:0.1" depart="1200.00" departLane="4338256_0" departPos="95.37" departPosLat="0.00" departSpeed="0.00" departDelay="0.00" arrival="1407.00" arrivalLane="172027782#8_0" arrivalPos="286.44" arrivalPosLat="0.00" arrivalSpeed="27.78" duration="207.00" routeLength="1835.74" waitingTime="1.00" waitingCount="1" stopTime="90.00" timeLoss="50.74" rerouteNo="0" devices="tripinfo_pt_light_rail_U13:0.1 routing_pt_light_rail_U13:0.1" vType="pt_light_rail" speedFactor="1.00" vaporized=""/>
    <tripinfo id="pt_light_rail_U13:1.1" depart="1200.00" departLane="68552415#0_0" departPos="109.60" departPosLat="0.00" departSpeed="0.00" departDelay="0.00" arrival="1428.00" arrivalLane="172027783_0" arrivalPos="58.11" arrivalPosLat="0.00" arrivalSpeed="1.00" duration="228.00" routeLength="1820.23" waitingTime="1.00" waitingCount="1" stopTime="120.00" timeLoss="42.44" rerouteNo="0" devices="tripinfo_pt_light_rail_U13:1.1 routing_pt_light_rail_U13:1.1" vType="pt_light_rail" speedFactor="1.00" vaporized=""/>
    <tripinfo id="pt_light_rail_U9:0.2" depart="1215.00" departLane="4338256_0" departPos="95.37" departPosLat="0.00" departSpeed="0.00" departDelay="0.00" arrival="1455.00" arrivalLane="172027782#8_0" arrivalPos="286.44" arrivalPosLat="0.00" arrivalSpeed="27.78" duration="240.00" routeLength="1835.74" waitingTime="51.00" waitingCount="1" stopTime="60.00" timeLoss="113.74" rerouteNo="0" devices="tripinfo_pt_light_rail_U9:0.2 routing_pt_light_rail_U9:0.2" vType="pt_light_rail" speedFactor="1.00" vaporized=""/>
    <tripinfo id="pt_bus_132:0.0" depart="0.00" departLane="-394114218#3_0" departPos="12.10" departPosLat="0.00" departSpeed="0.00" departDelay="0.00" arrival="1472.00" arrivalLane="-387117388_0" arrivalPos="4.08" arrivalPosLat="0.00" arrivalSpeed="0.79" duration="1472.00" routeLength="7040.86" waitingTime="21.00" waitingCount="10" stopTime="601.00" timeLoss="209.47" rerouteNo="1" devices="tripinfo_pt_bus_132:0.0 routing_pt_bus_132:0.0" vType="pt_bus" speedFactor="1.00" vaporized=""/>
    <tripinfo id="pt_bus_61:1.1" depart="1200.00" departLane="431444776_0" departPos="12.10" departPosLat="0.00" departSpeed="0.00" departDelay="0.00" arrival="1478.00" arrivalLane="-676917368#0_0" arrivalPos="19.04" arrivalPosLat="0.00" arrivalSpeed="0.99" duration="278.00" routeLength="1041.77" waitingTime="8.00" waitingCount="3" stopTime="149.00" timeLoss="48.20" rerouteNo="0" devices="tripinfo_pt_bus_61:1.1 routing_pt_bus_61:1.1" vType="pt_bus" speedFactor="1.00" vaporized=""/>
    <tripinfo id="pt_bus_61:0.1" depart="1200.00" departLane="-26263195#1_0" departPos="1.14" departPosLat="0.00" departSpeed="0.00" departDelay="0.00" arrival="1484.00" arrivalLane="-431444776_0" arrivalPos="34.49" arrivalPosLat="0.00" arrivalSpeed="1.86" duration="284.00" routeLength="1141.19" waitingTime="8.00" waitingCount="3" stopTime="143.00" timeLoss="57.25" rerouteNo="0" devices="tripinfo_pt_bus_61:0.1 routing_pt_bus_61:0.1" vType="pt_bus" speedFactor="1.00" vaporized=""/>
    <tripinfo id="pt_bus_121:0.1" depart="1200.00" departLane="-27531049#6_0" departPos="10.68" departPosLat="0.00" departSpeed="0.00" departDelay="0.00" arrival="1485.00" arrivalLane="207210285_0" arrivalPos="23.68" arrivalPosLat="0.00" arrivalSpeed="13.56" duration="285.00" routeLength="2044.43" waitingTime="1.00" waitingCount="1" stopTime="95.00" timeLoss="41.92" rerouteNo="0" devices="tripinfo_pt_bus_121:0.1 routing_pt_bus_121:0.1" vType="pt_bus" speedFactor="1.00" vaporized=""/>
    <tripinfo id="pt_bus_110:1.0" depart="0.00" departLane="1028791820_0" departPos="12.10" departPosLat="0.00" departSpeed="0.00" departDelay="0.00" arrival="1505.00" arrivalLane="794514059_0" arrivalPos="29.64" arrivalPosLat="0.00" arrivalSpeed="3.75" duration="1505.00" routeLength="4955.77" waitingTime="352.00" waitingCount="11" stopTime="512.00" timeLoss="505.15" rerouteNo="0" devices="tripinfo_pt_bus_110:1.0 routing_pt_bus_110:1.0" vType="pt_bus" speedFactor="1.00" vaporized=""/>
    <tripinfo id="pt_bus_121:1.1" depart="1200.00" departLane="207210286_0" departPos="12.10" departPosLat="0.00" departSpeed="0.00" departDelay="0.00" arrival="1537.00" arrivalLane="392589607#3_0" arrivalPos="0.20" arrivalPosLat="0.00" arrivalSpeed="1.03" duration="337.00" routeLength="2179.39" waitingTime="46.00" waitingCount="2" stopTime="80.00" timeLoss="98.75" rerouteNo="0" devices="tripinfo_pt_bus_121:1.1 routing_pt_bus_121:1.1" vType="pt_bus" speedFactor="1.00" vaporized=""/>
    <tripinfo id="pt_light_rail_U9:1.2" depart="1252.00" departLane="68552415#0_0" departPos="109.60" departPosLat="0.00" departSpeed="0.00" departDelay="0.00" arrival="1543.00" arrivalLane="172027783_0" arrivalPos="58.11" arrivalPosLat="0.00" arrivalSpeed="1.00" duration="291.00" routeLength="1820.23" waitingTime="58.00" waitingCount="2" stopTime="120.00" timeLoss="105.44" rerouteNo="0" devices="tripinfo_pt_light_rail_U9:1.2 routing_pt_light_rail_U9:1.2" vType="pt_light_rail" speedFactor="1.00" vaporized=""/>
    <tripinfo id="pt_bus_122:0.0" depart="0.00" departLane="-386500268#1_0" departPos="7.59" departPosLat="0.00" departSpeed="0.00" departDelay="0.00" arrival="1576.00" arrivalLane="-101742272#0_0" arrivalPos="150.27" arrivalPosLat="0.00" arrivalSpeed="13.44" duration="1576.00" routeLength="6353.79" waitingTime="572.00" waitingCount="15" stopTime="231.00" timeLoss="756.29" rerouteNo="1" devices="tripinfo_pt_bus_122:0.0 routing_pt_bus_122:0.0" vType="pt_bus" speedFactor="1.00" vaporized=""/>
    <tripinfo id="pt_bus_132:1.0" depart="5.00" departLane="-132761917_0" departPos="3.85" departPosLat="0.00" departSpeed="0.00" departDelay="0.00" arrival="1606.00" arrivalLane="-23059671#0_0" arrivalPos="82.19" arrivalPosLat="0.00" arrivalSpeed="8.01" duration="1601.00" routeLength="7485.60" waitingTime="113.00" waitingCount="11" stopTime="555.00" timeLoss="337.15" rerouteNo="1" devices="tripinfo_pt_bus_132:1.0 routing_pt_bus_132:1.0 person_pt_bus_132:1.0" vType="pt_bus" speedFactor="1.00" vaporized=""/>
    <tripinfo id="pt_train_S1:0.0" depart="0.00" departLane="762092297_0" departPos="135.10" departPosLat="0.00" departSpeed="0.00" departDelay="0.00" arrival="1614.00" arrivalLane="180784454#3_0" arrivalPos="191.78" arrivalPosLat="0.00" arrivalSpeed="12.00" duration="1614.00" routeLength="11216.66" waitingTime="301.00" waitingCount="1" stopTime="519.00" timeLoss="749.57" rerouteNo="1" devices="tripinfo_pt_train_S1:0.0 routing_pt_train_S1:0.0" vType="pt_train" speedFactor="1.00" vaporized=""/>
    <tripinfo id="pt_bus_108:0.0" depart="0.00" departLane="-794514059_0" departPos="12.10" departPosLat="0.00" departSpeed="0.00" departDelay="0.00" arrival="1648.00" arrivalLane="-26685613_0" arrivalPos="27.90" arrivalPosLat="0.00" arrivalSpeed="1.09" duration="1648.00" routeLength="7631.39" waitingTime="170.00" waitingCount="17" stopTime="560.00" timeLoss="402.08" rerouteNo="1" devices="tripinfo_pt_bus_108:0.0 routing_pt_bus_108:0.0" vType="pt_bus" speedFactor="1.00" vaporized=""/>