<?xml version="1.0" encoding="UTF-8"?>

<!-- generated on 2024-04-25 14:25:22 by Eclipse SUMO sumo Version 1.19.0
<configuration xmlns:xsi="http://www.w3.org/2001/XMLSchema-instance" xsi:noNamespaceSchemaLocation="http://sumo.dlr.de/xsd/sumoConfiguration.xsd">

    <input>
        <net-file value="Without_transport\crr.net.xml"/>
        <route-files value="Without_transport\flows.rou.xml"/>
        <additional-files value="Without_transport\osm_polygons.add.xml,Without_transport\ basic.vType.xml,Without_transport\ additional.xml,Without_transport\ data.rou.xml"/>
    </input>

    <output>
        <output-prefix value="output."/>
        <summary-output value="Without_transport\summary.xml"/>
        <person-summary-output value="Without_transport\person.summary.xml"/>
        <tripinfo-output value="Without_transport\tripinfo.xml"/>
        <tripinfo-output.write-unfinished value="false"/>
        <statistic-output value="Without_transport\statistics.xml"/>
    </output>

    <processing>
        <lateral-resolution value="0.8"/>
        <ignore-junction-blocker value="60"/>
        <ignore-route-errors value="true"/>
        <collision.action value="teleport"/>
        <time-to-teleport value="300"/>
        <max-depart-delay value="900"/>
        <time-to-impatience value="120"/>
        <parking.maneuver value="true"/>
        <pedestrian.model value="striping"/>
        <pedestrian.striping.stripe-width value="0.55"/>
        <pedestrian.striping.dawdling value="0.2"/>
        <pedestrian.striping.jamtime value="60"/>
        <pedestrian.striping.jamtime.crossing value="10"/>
        <pedestrian.striping.reserve-oncoming value="0.25"/>
        <pedestrian.striping.reserve-oncoming.junctions value="0.34"/>
        <ride.stop-tolerance value="25"/>
    </processing>

    <routing>
        <routing-algorithm value="astar"/>
        <persontrip.walkfactor value="0.75"/>
        <persontrip.transfer.car-walk value="parkingAreas,allJunctions"/>
        <persontrip.transfer.taxi-walk value="parkingAreas,allJunctions"/>
        <persontrip.transfer.walk-taxi value="parkingAreas,allJunctions"/>
        <persontrip.taxi.waiting-time value="300"/>
        <device.rerouting.probability value="1"/>
        <device.rerouting.period value="300"/>
        <device.rerouting.pre-period value="300"/>
        <device.rerouting.threads value="64"/>
        <device.rerouting.bike-speeds value="true"/>
        <person-device.rerouting.probability value="1"/>
        <person-device.rerouting.period value="300"/>
    </routing>

    <report>
        <verbose value="true"/>
        <no-warnings value="true"/>
        <duration-log.disable value="false"/>
        <duration-log.statistics value="true"/>
        <no-step-log value="false"/>
        <step-log.period value="100"/>
    </report>

    <taxi_device>
        <device.taxi.dispatch-algorithm value="greedy"/>
        <device.taxi.dispatch-algorithm.output value="Without_transport\taxi.dispatch.xml"/>
        <device.taxi.dispatch-period value="60"/>
        <device.taxi.idle-algorithm value="stop"/>
        <device.taxi.idle-algorithm.output value="Without_transport\taxi.idle.xml"/>
    </taxi_device>

    <traci_server>
        <remote-port value="64625"/>
    </traci_server>

    <random_number>
        <seed value="42"/>
    </random_number>

    <gui_only>
        <gui-settings-file value="Without_transport\default-gui.xml"/>
    </gui_only>

</configuration>
-->

<tripinfos xmlns:xsi="http://www.w3.org/2001/XMLSchema-instance" xsi:noNamespaceSchemaLocation="http://sumo.dlr.de/xsd/tripinfo_file.xsd">
    <tripinfo id="pt_bus_114:5.0" depart="0.00" departLane="-390841675_1" departPos="12.10" departPosLat="0.00" departSpeed="0.00" departDelay="0.00" arrival="214.00" arrivalLane="122574095_1" arrivalPos="35.58" arrivalPosLat="0.00" arrivalSpeed="4.32" duration="214.00" routeLength="1529.70" waitingTime="0.00" waitingCount="0" stopTime="69.00" timeLoss="26.12" rerouteNo="0" devices="tripinfo_pt_bus_114:5.0 routing_pt_bus_114:5.0" vType="pt_bus" speedFactor="1.00" vaporized=""/>
    <tripinfo id="pt_light_rail_U13:0.0" depart="0.00" departLane="673171637_0" departPos="109.60" departPosLat="0.00" departSpeed="0.00" departDelay="0.00" arrival="249.00" arrivalLane="172027782#5_0" arrivalPos="1439.03" arrivalPosLat="0.00" arrivalSpeed="1.00" duration="249.00" routeLength="1862.23" waitingTime="0.00" waitingCount="0" stopTime="120.00" timeLoss="61.92" rerouteNo="0" devices="tripinfo_pt_light_rail_U13:0.0 routing_pt_light_rail_U13:0.0" vType="pt_light_rail" speedFactor="1.00" vaporized=""/>
    <tripinfo id="pt_light_rail_U13:1.0" depart="0.00" departLane="68552415#0_0" departPos="109.60" departPosLat="0.00" departSpeed="0.00" departDelay="0.00" arrival="254.00" arrivalLane="172027783_0" arrivalPos="98.63" arrivalPosLat="0.00" arrivalSpeed="1.00" duration="254.00" routeLength="1860.56" waitingTime="0.00" waitingCount="0" stopTime="120.00" timeLoss="66.98" rerouteNo="0" devices="tripinfo_pt_light_rail_U13:1.0 routing_pt_light_rail_U13:1.0" vType="pt_light_rail" speedFactor="1.00" vaporized=""/>
    <tripinfo id="pt_light_rail_U9:0.0" depart="51.00" departLane="673171637_0" departPos="109.60" departPosLat="0.00" departSpeed="0.00" departDelay="0.00" arrival="265.00" arrivalLane="172027782#5_0" arrivalPos="1439.03" arrivalPosLat="0.00" arrivalSpeed="27.78" duration="214.00" routeLength="1862.23" waitingTime="0.00" waitingCount="0" stopTime="90.00" timeLoss="56.50" rerouteNo="0" devices="tripinfo_pt_light_rail_U9:0.0 routing_pt_light_rail_U9:0.0" vType="pt_light_rail" speedFactor="1.00" vaporized=""/>
    <tripinfo id="pt_bus_61:1.0" depart="0.00" departLane="431444776#1_0" departPos="12.10" departPosLat="0.00" departSpeed="0.00" departDelay="0.00" arrival="276.00" arrivalLane="-676917368#0_1" arrivalPos="22.31" arrivalPosLat="0.00" arrivalSpeed="0.78" duration="276.00" routeLength="1030.97" waitingTime="37.00" waitingCount="3" stopTime="119.00" timeLoss="76.56" rerouteNo="0" devices="tripinfo_pt_bus_61:1.0 routing_pt_bus_61:1.0" vType="pt_bus" speedFactor="1.00" vaporized=""/>
    <tripinfo id="pt_light_rail_U9:1.0" depart="52.00" departLane="68552415#0_0" departPos="109.60" departPosLat="0.00" departSpeed="0.00" departDelay="0.00" arrival="306.00" arrivalLane="172027783_0" arrivalPos="98.63" arrivalPosLat="0.00" arrivalSpeed="1.00" duration="254.00" routeLength="1860.56" waitingTime="0.00" waitingCount="0" stopTime="120.00" timeLoss="66.98" rerouteNo="0" devices="tripinfo_pt_light_rail_U9:1.0 routing_pt_light_rail_U9:1.0" vType="pt_light_rail" speedFactor="1.00" vaporized=""/>
    <tripinfo id="pt_train_RE_5:0.0" depart="0.00" departLane="156199094#3_0" departPos="135.10" departPosLat="0.00" departSpeed="0.00" departDelay="0.00" arrival="317.00" arrivalLane="48316096#2_0" arrivalPos="589.00" arrivalPosLat="0.00" arrivalSpeed="7.75" duration="317.00" routeLength="4125.58" waitingTime="0.00" waitingCount="0" stopTime="60.00" timeLoss="158.59" rerouteNo="0" devices="tripinfo_pt_train_RE_5:0.0 routing_pt_train_RE_5:0.0" vType="pt_train" speedFactor="1.00" vaporized=""/>
    <tripinfo id="pt_bus_816:1.0" depart="0.00" departLane="-294067066#1_1" departPos="12.10" departPosLat="0.00" departSpeed="0.00" departDelay="0.00" arrival="416.00" arrivalLane="29146499#2_1" arrivalPos="40.22" arrivalPosLat="0.00" arrivalSpeed="3.48" duration="416.00" routeLength="2061.50" waitingTime="51.00" waitingCount="4" stopTime="113.00" timeLoss="109.38" rerouteNo="0" devices="tripinfo_pt_bus_816:1.0 routing_pt_bus_816:1.0" vType="pt_bus" speedFactor="1.00" vaporized=""/>
    <tripinfo id="pt_bus_61:0.0" depart="0.00" departLane="-540190677_1" departPos="12.10" departPosLat="0.00" departSpeed="0.00" departDelay="0.00" arrival="480.00" arrivalLane="-24779203#0_0" arrivalPos="263.70" arrivalPosLat="0.00" arrivalSpeed="5.02" duration="480.00" routeLength="2182.34" waitingTime="3.00" waitingCount="3" stopTime="215.00" timeLoss="103.04" rerouteNo="0" devices="tripinfo_pt_bus_61:0.0 routing_pt_bus_61:0.0" vType="pt_bus" speedFactor="1.00" vaporized=""/>
    <tripinfo id="pt_light_rail_U8:1.0" depart="0.00" departLane="26946520#0_0" departPos="109.60" departPosLat="0.00" departSpeed="0.00" departDelay="0.00" arrival="498.00" arrivalLane="40985104#4_0" arrivalPos="2135.05" arrivalPosLat="0.00" arrivalSpeed="1.00" duration="498.00" routeLength="4576.90" waitingTime="0.00" waitingCount="0" stopTime="210.00" timeLoss="123.20" rerouteNo="0" devices="tripinfo_pt_light_rail_U8:1.0 routing_pt_light_rail_U8:1.0" vType="pt_light_rail" speedFactor="1.00" vaporized=""/>
    <tripinfo id="pt_bus_816:0.0" depart="0.00" departLane="29146499#2_1" departPos="12.10" departPosLat="0.00" departSpeed="0.00" departDelay="0.00" arrival="509.00" arrivalLane="294067066#10_1" arrivalPos="37.98" arrivalPosLat="0.00" arrivalSpeed="3.06" duration="509.00" routeLength="2307.06" waitingTime="69.00" waitingCount="4" stopTime="160.00" timeLoss="134.43" rerouteNo="0" devices="tripinfo_pt_bus_816:0.0 routing_pt_bus_816:0.0" vType="pt_bus" speedFactor="1.00" vaporized=""/>
    <tripinfo id="pt_bus_65:1.0" depart="39.00" departLane="27607327#0_1" departPos="12.10" departPosLat="0.00" departSpeed="0.00" departDelay="0.00" arrival="520.00" arrivalLane="-676917368#0_1" arrivalPos="22.31" arrivalPosLat="0.00" arrivalSpeed="0.74" duration="481.00" routeLength="1888.42" waitingTime="90.00" waitingCount="6" stopTime="149.00" timeLoss="188.25" rerouteNo="0" devices="tripinfo_pt_bus_65:1.0 routing_pt_bus_65:1.0" vType="pt_bus" speedFactor="1.00" vaporized=""/>
    <tripinfo id="pt_light_rail_U7:1.0" depart="15.00" departLane="26946520#0_0" departPos="109.60" departPosLat="0.00" departSpeed="0.00" departDelay="0.00" arrival="549.00" arrivalLane="40985104#4_0" arrivalPos="2135.05" arrivalPosLat="0.00" arrivalSpeed="1.00" duration="534.00" routeLength="4576.90" waitingTime="25.00" waitingCount="1" stopTime="210.00" timeLoss="159.20" rerouteNo="0" devices="tripinfo_pt_light_rail_U7:1.0 routing_pt_light_rail_U7:1.0" vType="pt_light_rail" speedFactor="1.00" vaporized=""/>
    <tripinfo id="pt_light_rail_U8:0.0" depart="0.00" departLane="89344777#0_0" departPos="109.60" departPosLat="0.00" departSpeed="0.00" departDelay="0.00" arrival="558.00" arrivalLane="26946516#1_0" arrivalPos="1910.04" arrivalPosLat="0.00" arrivalSpeed="27.78" duration="558.00" routeLength="5963.27" waitingTime="0.00" waitingCount="0" stopTime="210.00" timeLoss="132.34" rerouteNo="0" devices="tripinfo_pt_light_rail_U8:0.0 routing_pt_light_rail_U8:0.0" vType="pt_light_rail" speedFactor="1.00" vaporized=""/>
    <tripinfo id="pt_light_rail_U7:0.0" depart="52.00" departLane="89344777#0_0" departPos="109.60" departPosLat="0.00" departSpeed="0.00" departDelay="0.00" arrival="610.00" arrivalLane="26946516#1_0" arrivalPos="1910.04" arrivalPosLat="0.00" arrivalSpeed="27.78" duration="558.00" routeLength="5963.27" waitingTime="0.00" waitingCount="0" stopTime="210.00" timeLoss="132.34" rerouteNo="0" devices="tripinfo_pt_light_rail_U7:0.0 routing_pt_light_rail_U7:0.0" vType="pt_light_rail" speedFactor="1.00" vaporized=""/>
    <tripinfo id="pt_bus_65:0.0" depart="0.00" departLane="-676917368#0_1" departPos="12.10" departPosLat="0.00" departSpeed="0.00" departDelay="0.00" arrival="627.00" arrivalLane="-27607327#1_1" arrivalPos="46.34" arrivalPosLat="0.00" arrivalSpeed="1.71" duration="627.00" routeLength="2396.96" waitingTime="99.00" waitingCount="8" stopTime="209.00" timeLoss="239.19" rerouteNo="0" devices="tripinfo_pt_bus_65:0.0 routing_pt_bus_65:0.0" vType="pt_bus" speedFactor="1.00" vaporized=""/>
    <tripinfo id="pt_bus_121:0.0" depart="0.00" departLane="-392589607#0_1" departPos="12.10" departPosLat="0.00" departSpeed="0.00" departDelay="0.00" arrival="658.00" arrivalLane="613655965_1" arrivalPos="255.51" arrivalPosLat="0.00" arrivalSpeed="7.58" duration="658.00" routeLength="3513.31" waitingTime="46.00" waitingCount="3" stopTime="254.00" timeLoss="146.85" rerouteNo="0" devices="tripinfo_pt_bus_121:0.0 routing_pt_bus_121:0.0" vType="pt_bus" speedFactor="1.00" vaporized=""/>
    <tripinfo id="pt_bus_121:1.0" depart="12.00" departLane="-207082664_1" departPos="12.10" departPosLat="0.00" departSpeed="0.00" departDelay="0.00" arrival="687.00" arrivalLane="392589607#3_1" arrivalPos="31.11" arrivalPosLat="0.00" arrivalSpeed="5.61" duration="675.00" routeLength="3629.01" waitingTime="56.00" waitingCount="2" stopTime="247.00" timeLoss="162.75" rerouteNo="0" devices="tripinfo_pt_bus_121:1.0 routing_pt_bus_121:1.0" vType="pt_bus" speedFactor="1.00" vaporized=""/>
    <tripinfo id="pt_bus_62:0.0" depart="0.00" departLane="27607327#0_1" departPos="12.10" departPosLat="0.00" departSpeed="0.00" departDelay="0.00" arrival="689.00" arrivalLane="-195389808#1_1" arrivalPos="142.50" arrivalPosLat="0.00" arrivalSpeed="10.27" duration="689.00" routeLength="3518.45" waitingTime="48.00" waitingCount="8" stopTime="246.00" timeLoss="180.06" rerouteNo="0" devices="tripinfo_pt_bus_62:0.0 routing_pt_bus_62:0.0" vType="pt_bus" speedFactor="1.00" vaporized=""/>
    <tripinfo id="p0_0" depart="0.00" departLane="-171959839#0_1" departPos="0.20" departPosLat="0.00" departSpeed="0.00" departDelay="0.00" arrival="754.00" arrivalLane="12099342#3_1" arrivalPos="3.86" arrivalPosLat="1.15" arrivalSpeed="0.07" duration="754.00" routeLength="6539.57" waitingTime="43.00" waitingCount="2" stopTime="0.00" timeLoss="166.85" rerouteNo="1" devices="tripinfo_p0_0 routing_p0_0 person_p0_0" vType="motorcycle" speedFactor="1.07" vaporized=""/>
    <tripinfo id="pt_bus_X20:1.0" depart="39.00" departLane="268558821#1_1" departPos="12.10" departPosLat="0.00" departSpeed="0.00" departDelay="32.00" arrival="764.00" arrivalLane="-232962013#1_1" arrivalPos="13.55" arrivalPosLat="0.00" arrivalSpeed="1.17" duration="725.00" routeLength="5682.81" waitingTime="60.00" waitingCount="4" stopTime="72.00" timeLoss="146.06" rerouteNo="0" devices="tripinfo_pt_bus_X20:1.0 routing_pt_bus_X20:1.0" vType="pt_bus" speedFactor="1.00" vaporized=""/>
    <tripinfo id="pt_bus_X20:0.0" depart="0.00" departLane="232962013#1_1" departPos="12.10" departPosLat="0.00" departSpeed="0.00" departDelay="0.00" arrival="791.00" arrivalLane="268558821#1_1" arrivalPos="28.71" arrivalPosLat="0.00" arrivalSpeed="1.42" duration="791.00" routeLength="7121.57" waitingTime="22.00" waitingCount="4" stopTime="134.00" timeLoss="109.69" rerouteNo="0" devices="tripinfo_pt_bus_X20:0.0 routing_pt_bus_X20:0.0" vType="pt_bus" speedFactor="1.00" vaporized=""/>
    <tripinfo id="pt_bus_119:1.0" depart="0.00" departLane="569733700#3_1" departPos="12.10" departPosLat="0.00" departSpeed="0.00" departDelay="0.00" arrival="797.00" arrivalLane="268558823#1_1" arrivalPos="25.19" arrivalPosLat="0.00" arrivalSpeed="0.70" duration="797.00" routeLength="4410.99" waitingTime="7.00" waitingCount="2" stopTime="320.00" timeLoss="124.57" rerouteNo="0" devices="tripinfo_pt_bus_119:1.0 routing_pt_bus_119:1.0" vType="pt_bus" speedFactor="1.00" vaporized=""/>
    <tripinfo id="pt_bus_140:1.0" depart="0.00" departLane="-39761675#3_1" departPos="12.10" departPosLat="0.00" departSpeed="0.00" departDelay="0.00" arrival="829.00" arrivalLane="268558821#1_1" arrivalPos="28.71" arrivalPosLat="0.00" arrivalSpeed="1.88" duration="829.00" routeLength="4728.53" waitingTime="186.00" waitingCount="8" stopTime="184.00" timeLoss="302.35" rerouteNo="0" devices="tripinfo_pt_bus_140:1.0 routing_pt_bus_140:1.0" vType="pt_bus" speedFactor="1.00" vaporized=""/>
    <tripinfo id="pt_bus_119:0.0" depart="0.00" departLane="268558823#1_1" departPos="12.10" departPosLat="0.00" departSpeed="0.00" departDelay="0.00" arrival="846.00" arrivalLane="-127121917#0_1" arrivalPos="103.63" arrivalPosLat="0.00" arrivalSpeed="0.61" duration="846.00" routeLength="4303.86" waitingTime="92.00" waitingCount="10" stopTime="278.00" timeLoss="225.37" rerouteNo="0" devices="tripinfo_pt_bus_119:0.0 routing_pt_bus_119:0.0" vType="pt_bus" speedFactor="1.00" vaporized=""/>
    <tripinfo id="pt_light_rail_U9:0.1" depart="651.00" departLane="673171637_0" departPos="109.60" departPosLat="0.00" departSpeed="0.00" departDelay="0.00" arrival="865.00" arrivalLane="172027782#5_0" arrivalPos="1439.03" arrivalPosLat="0.00" arrivalSpeed="27.78" duration="214.00" routeLength="1862.23" waitingTime="0.00" waitingCount="0" stopTime="90.00" timeLoss="56.50" rerouteNo="0" devices="tripinfo_pt_light_rail_U9:0.1 routing_pt_light_rail_U9:0.1" vType="pt_light_rail" speedFactor="1.00" vaporized=""/>
    <tripinfo id="pt_bus_140:0.0" depart="0.00" departLane="268558821#1_1" departPos="12.10" departPosLat="0.00" departSpeed="0.00" departDelay="0.00" arrival="866.00" arrivalLane="39761675#3_1" arrivalPos="87.90" arrivalPosLat="0.00" arrivalSpeed="2.23" duration="866.00" routeLength="5368.93" waitingTime="131.00" waitingCount="10" stopTime="191.00" timeLoss="278.38" rerouteNo="0" devices="tripinfo_pt_bus_140:0.0 routing_pt_bus_140:0.0" vType="pt_bus" speedFactor="1.00" vaporized=""/>
    <tripinfo id="pt_light_rail_U9:1.1" depart="652.00" departLane="68552415#0_0" departPos="109.60" departPosLat="0.00" departSpeed="0.00" departDelay="0.00" arrival="906.00" arrivalLane="172027783_0" arrivalPos="98.63" arrivalPosLat="0.00" arrivalSpeed="1.00" duration="254.00" routeLength="1860.56" waitingTime="0.00" waitingCount="0" stopTime="120.00" timeLoss="66.98" rerouteNo="0" devices="tripinfo_pt_light_rail_U9:1.1 routing_pt_light_rail_U9:1.1" vType="pt_light_rail" speedFactor="1.00" vaporized=""/>
    <tripinfo id="pt_bus_120:1.0" depart="0.00" departLane="177336121_1" departPos="12.10" departPosLat="0.00" departSpeed="0.00" departDelay="0.00" arrival="916.00" arrivalLane="384972991#1_1" arrivalPos="28.13" arrivalPosLat="0.00" arrivalSpeed="1.02" duration="916.00" routeLength="4570.33" waitingTime="116.00" waitingCount="7" stopTime="300.00" timeLoss="254.19" rerouteNo="0" devices="tripinfo_pt_bus_120:1.0 routing_pt_bus_120:1.0" vType="pt_bus" speedFactor="1.00" vaporized=""/>
    <tripinfo id="pt_train_S1:1.0" depart="0.00" departLane="123444522#1_0" departPos="135.10" departPosLat="0.00" departSpeed="0.00" departDelay="0.00" arrival="947.00" arrivalLane="23163786#1_0" arrivalPos="616.75" arrivalPosLat="0.00" arrivalSpeed="7.50" duration="947.00" routeLength="10689.15" waitingTime="0.00" waitingCount="0" stopTime="180.00" timeLoss="435.15" rerouteNo="0" devices="tripinfo_pt_train_S1:1.0 routing_pt_train_S1:1.0" vType="pt_train" speedFactor="1.00" vaporized=""/>
    <tripinfo id="pt_train_S1:0.0" depart="0.00" departLane="292876200#2_0" departPos="135.10" departPosLat="0.00" departSpeed="0.00" departDelay="0.00" arrival="948.00" arrivalLane="180784454#2_0" arrivalPos="2403.09" arrivalPosLat="0.00" arrivalSpeed="7.00" duration="948.00" routeLength="10699.83" waitingTime="0.00" waitingCount="0" stopTime="180.00" timeLoss="438.09" rerouteNo="0" devices="tripinfo_pt_train_S1:0.0 routing_pt_train_S1:0.0" vType="pt_train" speedFactor="1.00" vaporized=""/>
    <tripinfo id="pt_bus_109:1.0" depart="0.00" departLane="387117388_1" departPos="1.30" departPosLat="0.00" departSpeed="0.00" departDelay="0.00" arrival="974.00" arrivalLane="-386500268#0_1" arrivalPos="71.25" arrivalPosLat="0.00" arrivalSpeed="5.16" duration="974.00" routeLength="4676.02" waitingTime="22.00" waitingCount="7" stopTime="377.00" timeLoss="136.38" rerouteNo="0" devices="tripinfo_pt_bus_109:1.0 routing_pt_bus_109:1.0" vType="pt_bus" speedFactor="1.00" vaporized=""/>
    <tripinfo id="pt_bus_N19:0.0" depart="142.00" departLane="268558823#1_1" departPos="12.10" departPosLat="0.00" departSpeed="0.00" departDelay="0.00" arrival="1020.00" arrivalLane="576816774#0_1" arrivalPos="239.14" arrivalPosLat="0.00" arrivalSpeed="10.15" duration="878.00" routeLength="4504.22" waitingTime="129.00" waitingCount="9" stopTime="282.00" timeLoss="265.14" rerouteNo="0" devices="tripinfo_pt_bus_N19:0.0 routing_pt_bus_N19:0.0" vType="pt_bus" speedFactor="1.00" vaporized=""/>
    <tripinfo id="pt_bus_114:0.0" depart="0.00" departLane="384972991#1_1" departPos="12.10" departPosLat="0.00" departSpeed="0.00" departDelay="0.00" arrival="1025.00" arrivalLane="846930959_1" arrivalPos="96.74" arrivalPosLat="0.00" arrivalSpeed="12.14" duration="1025.00" routeLength="5664.17" waitingTime="194.00" waitingCount="12" stopTime="232.00" timeLoss="349.39" rerouteNo="0" devices="tripinfo_pt_bus_114:0.0 routing_pt_bus_114:0.0" vType="pt_bus" speedFactor="1.00" vaporized=""/>
    <tripinfo id="pt_bus_114:1.0" depart="0.00" departLane="-846930959_1" departPos="12.10" departPosLat="0.00" departSpeed="0.00" departDelay="0.00" arrival="1095.00" arrivalLane="384972991#1_1" arrivalPos="28.13" arrivalPosLat="0.00" arrivalSpeed="0.60" duration="1095.00" routeLength="4964.62" waitingTime="318.00" waitingCount="16" stopTime="209.00" timeLoss="499.85" rerouteNo="0" devices="tripinfo_pt_bus_114:1.0 routing_pt_bus_114:1.0" vType="pt_bus" speedFactor="1.00" vaporized=""/>
    <tripinfo id="pt_bus_114:2.0" depart="49.00" departLane="384972991#1_1" departPos="12.10" departPosLat="0.00" departSpeed="0.00" departDelay="43.00" arrival="1116.00" arrivalLane="846930959_1" arrivalPos="96.74" arrivalPosLat="0.00" arrivalSpeed="11.59" duration="1067.00" routeLength="5611.84" waitingTime="171.00" waitingCount="11" stopTime="290.00" timeLoss="340.41" rerouteNo="0" devices="tripinfo_pt_bus_114:2.0 routing_pt_bus_114:2.0" vType="pt_bus" speedFactor="1.00" vaporized=""/>
    <tripinfo id="pt_bus_106:1.0" depart="6.00" departLane="-846930959_1" departPos="12.10" departPosLat="0.00" departSpeed="0.00" departDelay="1.00" arrival="1139.00" arrivalLane="384972991#1_1" arrivalPos="28.13" arrivalPosLat="0.00" arrivalSpeed="1.14" duration="1133.00" routeLength="4964.62" waitingTime="368.00" waitingCount="16" stopTime="206.00" timeLoss="540.56" rerouteNo="0" devices="tripinfo_pt_bus_106:1.0 routing_pt_bus_106:1.0" vType="pt_bus" speedFactor="1.00" vaporized=""/>
    <tripinfo id="pt_bus_109:0.0" depart="0.00" departLane="156260258_1" departPos="12.10" departPosLat="0.00" departSpeed="0.00" departDelay="0.00" arrival="1145.00" arrivalLane="24508759#6_1" arrivalPos="28.21" arrivalPosLat="0.00" arrivalSpeed="4.86" duration="1145.00" routeLength="4636.43" waitingTime="197.00" waitingCount="15" stopTime="340.00" timeLoss="351.38" rerouteNo="0" devices="tripinfo_pt_bus_109:0.0 routing_pt_bus_109:0.0" vType="pt_bus" speedFactor="1.00" vaporized=""/>
    <tripinfo id="pt_light_rail_U7:1.1" depart="615.00" departLane="26946520#0_0" departPos="109.60" departPosLat="0.00" departSpeed="0.00" departDelay="0.00" arrival="1149.00" arrivalLane="40985104#4_0" arrivalPos="2135.05" arrivalPosLat="0.00" arrivalSpeed="1.00" duration="534.00" routeLength="4576.90" waitingTime="0.00" waitingCount="0" stopTime="246.00" timeLoss="123.20" rerouteNo="0" devices="tripinfo_pt_light_rail_U7:1.1 routing_pt_light_rail_U7:1.1" vType="pt_light_rail" speedFactor="1.00" vaporized=""/>
    <tripinfo id="pt_bus_113:1.0" depart="106.00" departLane="675777502_1" departPos="12.10" departPosLat="0.00" departSpeed="0.00" departDelay="2.00" arrival="1165.00" arrivalLane="390216945#2_1" arrivalPos="18.72" arrivalPosLat="0.00" arrivalSpeed="1.01" duration="1059.00" routeLength="4742.83" waitingTime="280.00" waitingCount="12" stopTime="175.00" timeLoss="476.18" rerouteNo="0" devices="tripinfo_pt_bus_113:1.0 routing_pt_bus_113:1.0" vType="pt_bus" speedFactor="1.00" vaporized=""/>
    <tripinfo id="pt_bus_110:1.0" depart="0.00" departLane="1028791820_1" departPos="12.10" departPosLat="0.00" departSpeed="0.00" departDelay="0.00" arrival="1171.00" arrivalLane="156260258_1" arrivalPos="74.72" arrivalPosLat="0.00" arrivalSpeed="1.01" duration="1171.00" routeLength="4973.87" waitingTime="118.00" waitingCount="10" stopTime="406.00" timeLoss="273.69" rerouteNo="0" devices="tripinfo_pt_bus_110:1.0 routing_pt_bus_110:1.0" vType="pt_bus" speedFactor="1.00" vaporized=""/>
    <tripinfo id="pt_bus_105:1.0" depart="6.00" departLane="-392441930_1" departPos="12.10" departPosLat="0.00" departSpeed="0.00" departDelay="1.00" arrival="1182.00" arrivalLane="675674221_1" arrivalPos="36.76" arrivalPosLat="0.00" arrivalSpeed="0.96" duration="1176.00" routeLength="4281.59" waitingTime="246.00" waitingCount="15" stopTime="305.00" timeLoss="406.51" rerouteNo="0" devices="tripinfo_pt_bus_105:1.0 routing_pt_bus_105:1.0" vType="pt_bus" speedFactor="1.00" vaporized=""/>
    <tripinfo id="pt_bus_122:1.0" depart="0.00" departLane="101742272#8_1" departPos="12.10" departPosLat="0.00" departSpeed="0.00" departDelay="0.00" arrival="1184.00" arrivalLane="-392441930_1" arrivalPos="52.90" arrivalPosLat="0.00" arrivalSpeed="0.71" duration="1184.00" routeLength="4768.76" waitingTime="377.00" waitingCount="8" stopTime="288.00" timeLoss="491.16" rerouteNo="0" devices="tripinfo_pt_bus_122:1.0 routing_pt_bus_122:1.0" vType="pt_bus" speedFactor="1.00" vaporized=""/>
    <tripinfo id="pt_light_rail_U7:0.1" depart="652.00" departLane="89344777#0_0" departPos="109.60" departPosLat="0.00" departSpeed="0.00" departDelay="0.00" arrival="1210.00" arrivalLane="26946516#1_0" arrivalPos="1910.04" arrivalPosLat="0.00" arrivalSpeed="27.78" duration="558.00" routeLength="5963.27" waitingTime="0.00" waitingCount="0" stopTime="210.00" timeLoss="132.34" rerouteNo="0" devices="tripinfo_pt_light_rail_U7:0.1 routing_pt_light_rail_U7:0.1" vType="pt_light_rail" speedFactor="1.00" vaporized=""/>
    <tripinfo id="pt_bus_114:4.0" depart="12.00" departLane="-846930959_1" departPos="12.10" departPosLat="0.00" departSpeed="0.00" departDelay="1.00" arrival="1218.00" arrivalLane="384972991#1_1" arrivalPos="28.13" arrivalPosLat="0.00" arrivalSpeed="0.64" duration="1206.00" routeLength="4964.62" waitingTime="419.00" waitingCount="20" stopTime="212.00" timeLoss="608.16" rerouteNo="0" devices="tripinfo_pt_bus_114:4.0 routing_pt_bus_114:4.0" vType="pt_bus" speedFactor="1.00" vaporized=""/>
    <tripinfo id="pt_bus_132:2.0" depart="37.00" departLane="1028791820_1" departPos="12.10" departPosLat="0.00" departSpeed="0.00" departDelay="0.00" arrival="1287.00" arrivalLane="-394114218#3_1" arrivalPos="90.16" arrivalPosLat="0.00" arrivalSpeed="8.14" duration="1250.00" routeLength="5396.39" waitingTime="90.00" waitingCount="9" stopTime="475.00" timeLoss="270.18" rerouteNo="0" devices="tripinfo_pt_bus_132:2.0 routing_pt_bus_132:2.0" vType="pt_bus" speedFactor="1.00" vaporized=""/>
    <tripinfo id="pt_bus_106:0.0" depart="90.00" departLane="384972991#1_1" departPos="12.10" departPosLat="0.00" departSpeed="0.00" departDelay="34.00" arrival="1294.00" arrivalLane="846930959_1" arrivalPos="96.74" arrivalPosLat="0.00" arrivalSpeed="12.00" duration="1204.00" routeLength="5611.84" waitingTime="403.00" waitingCount="16" stopTime="175.00" timeLoss="591.35" rerouteNo="0" devices="tripinfo_pt_bus_106:0.0 routing_pt_bus_106:0.0" vType="pt_bus" speedFactor="1.00" vaporized=""/>
    <tripinfo id="pt_bus_105:0.0" depart="0.00" departLane="675674221_1" departPos="12.10" departPosLat="0.00" departSpeed="0.00" departDelay="0.00" arrival="1335.00" arrivalLane="-392441930_1" arrivalPos="52.90" arrivalPosLat="0.00" arrivalSpeed="1.19" duration="1335.00" routeLength="6179.45" waitingTime="220.00" waitingCount="15" stopTime="304.00" timeLoss="406.70" rerouteNo="0" devices="tripinfo_pt_bus_105:0.0 routing_pt_bus_105:0.0" vType="pt_bus" speedFactor="1.00" vaporized=""/>
    <tripinfo id="pt_bus_114:3.0" depart="261.00" departLane="384972991#1_1" departPos="12.10" departPosLat="0.00" departSpeed="0.00" departDelay="32.00" arrival="1336.00" arrivalLane="846930959_1" arrivalPos="96.74" arrivalPosLat="0.00" arrivalSpeed="11.81" duration="1075.00" routeLength="5611.84" waitingTime="279.00" waitingCount="16" stopTime="173.00" timeLoss="465.49" rerouteNo="0" devices="tripinfo_pt_bus_114:3.0 routing_pt_bus_114:3.0" vType="pt_bus" speedFactor="1.00" vaporized=""/>
    <tripinfo id="pt_bus_120:0.0" depart="174.00" departLane="384972991#1_1" departPos="12.10" departPosLat="0.00" departSpeed="0.00" departDelay="35.00" arrival="1356.00" arrivalLane="-576816774#0_1" arrivalPos="239.32" arrivalPosLat="0.00" arrivalSpeed="13.49" duration="1182.00" routeLength="4265.95" waitingTime="129.00" waitingCount="9" stopTime="613.00" timeLoss="255.11" rerouteNo="0" devices="tripinfo_pt_bus_120:0.0 routing_pt_bus_120:0.0" vType="pt_bus" speedFactor="1.00" vaporized=""/>
    <tripinfo id="pt_bus_132:0.0" depart="0.00" departLane="-394114218#3_1" departPos="12.10" departPosLat="0.00" departSpeed="0.00" departDelay="0.00" arrival="1418.00" arrivalLane="-387117388_1" arrivalPos="4.11" arrivalPosLat="0.00" arrivalSpeed="0.90" duration="1418.00" routeLength="7070.18" waitingTime="17.00" waitingCount="7" stopTime="542.00" timeLoss="212.62" rerouteNo="0" devices="tripinfo_pt_bus_132:0.0 routing_pt_bus_132:0.0" vType="pt_bus" speedFactor="1.00" vaporized=""/>
    <tripinfo id="pt_bus_110:0.0" depart="12.00" departLane="-392441930_1" departPos="12.10" departPosLat="0.00" departSpeed="0.00" departDelay="1.00" arrival="1425.00" arrivalLane="-412792775_1" arrivalPos="24.73" arrivalPosLat="0.00" arrivalSpeed="0.94" duration="1413.00" routeLength="4983.99" waitingTime="278.00" waitingCount="20" stopTime="442.00" timeLoss="476.43" rerouteNo="0" devices="tripinfo_pt_bus_110:0.0 routing_pt_bus_110:0.0" vType="pt_bus" speedFactor="1.00" vaporized=""/>
    <tripinfo id="pt_bus_115:1.0" depart="77.00" departLane="169225673_1" departPos="12.10" departPosLat="0.00" departSpeed="0.00" departDelay="0.00" arrival="1426.00" arrivalLane="156260258_1" arrivalPos="74.72" arrivalPosLat="0.00" arrivalSpeed="0.86" duration="1349.00" routeLength="6351.02" waitingTime="174.00" waitingCount="11" stopTime="474.00" timeLoss="363.40" rerouteNo="0" devices="tripinfo_pt_bus_115:1.0 routing_pt_bus_115:1.0" vType="pt_bus" speedFactor="1.00" vaporized=""/>