<?xml version="1.0" encoding="UTF-8"?>

<!-- generated on 2023-07-06 18:02:39 by Eclipse SUMO sumo Version 1.16.0
<configuration xmlns:xsi="http://www.w3.org/2001/XMLSchema-instance" xsi:noNamespaceSchemaLocation="http://sumo.dlr.de/xsd/sumoConfiguration.xsd">

    <input>
        <net-file value="C:\Users\sader\Sumo\2023-07-06-18-02-23\osm.net.xml.gz"/>
        <route-files value="C:\Users\sader\Sumo\2023-07-06-18-02-23\trips.trips.xml"/>
        <additional-files value="C:\Users\sader\Sumo\2023-07-06-18-02-23\osm_stops.add.xml"/>
    </input>

    <output>
        <vehroute-output value="C:\Users\sader\Sumo\2023-07-06-18-02-23\vehroutes.xml"/>
        <stop-output value="C:\Users\sader\Sumo\2023-07-06-18-02-23\stopinfos.xml"/>
    </output>

    <time>
        <begin value="0.0"/>
    </time>

    <processing>
        <ignore-route-errors value="true"/>
    </processing>

    <routing>
        <device.rerouting.adaptation-interval value="0"/>
    </routing>

    <report>
        <aggregate-warnings value="5"/>
        <error-log value="C:\Users\sader\Sumo\2023-07-06-18-02-23\trips.trips.xml.errorlog"/>
        <no-step-log value="true"/>
    </report>

</configuration>
-->

<routes xmlns:xsi="http://www.w3.org/2001/XMLSchema-instance" xsi:noNamespaceSchemaLocation="http://sumo.dlr.de/xsd/routes_file.xsd">
    <vehicle id="11_light_rail_U8:0" type="pt_light_rail" depart="93.00" departLane="0" arrival="319.00">
        <route edges="12815133"/>
        <stop busStop="270196725" duration="30.00"/>
        <stop busStop="270599198" duration="30.00"/>
        <stop busStop="113591455" duration="30.00"/>
    </vehicle>

    <vehicle id="12_light_rail_U8:1" type="pt_light_rail" depart="98.00" departLane="0" arrival="324.00">
        <route edges="26946520 26946517#1"/>
        <stop busStop="295255872" duration="30.00"/>
        <stop busStop="295255894" duration="30.00"/>
        <stop busStop="295255933" duration="30.00"/>
    </vehicle>

    <vehicle id="21_light_rail_U7:0" type="pt_light_rail" depart="137.00" departLane="0" arrival="369.00">
        <route edges="12815133"/>
        <stop busStop="270196725" duration="30.00"/>
        <stop busStop="270599198" duration="30.00"/>
        <stop busStop="113591455" duration="30.00"/>
    </vehicle>

    <vehicle id="22_light_rail_U7:1" type="pt_light_rail" depart="139.00" departLane="0" arrival="377.00">
        <route edges="26946520 26946517#1"/>
        <stop busStop="295255872" duration="30.00"/>
        <stop busStop="295255894" duration="30.00"/>
        <stop busStop="295255933" duration="30.00"/>
    </vehicle>

    <vehicle id="14_bus_121:0" type="pt_bus" depart="119.00" departLane="0" arrival="500.00">
        <route edges="27531049#0 27531049#2 27531049#3 27531049#4 27531049#5 27531049#6 392589607#1 -392589607#1 -392589607#0 -27531049#5 -27531049#4 -27531049#3 -27531049#2 -27531049#1 27531049#0 27531049#2 27531049#3 27531049#4 27531049#5 27531049#6"/>
        <stop busStop="245017149" duration="30.00"/>
        <stop busStop="3883265541" duration="30.00"/>
    </vehicle>

    <vehicle id="13_bus_119:0" type="pt_bus" depart="102.00" departLane="0" arrival="549.00">
        <route edges="268558823#1 -146911733 -468914851 4811517 26738365#0 26738365#1 265461450 423481774#0 423481774#1 220150010 10492736 345736590 345736590-AddedOffRampEdge 345736580 180667064#0 345736584 265461444#0 692610294 1157387458 345736587#0 345736587#1 30998717#0 11335846#1 926867325 345736604 926867324 265461454 926867322 23182939 265450242 345736606 686955221 345736600 345736605 1079724463 30998715 30998714 211686719 11336059 156261679#0 156261679#1 156261680 255241186"/>
        <stop busStop="3566577206" duration="30.00"/>
        <stop busStop="3933810892" duration="30.00"/>
        <stop busStop="2711169196" duration="30.00"/>
    </vehicle>

    <vehicle id="2_train_RE_5:0" type="pt_train" depart="15.00" departLane="0" arrival="571.00">
        <route edges="248760538#0 248760538#1 248760538#2 248760538#3 248760538#4 180784434#1 156199094#1 156199094#2 156199094#3 102848475#1 102848507#0 102848507#1 460942121#0 460942121#1 25423242#1 85959749#1 68906765 70395557#1 48316096#1 48316096#2"/>
        <stop busStop="2661523902" duration="30.00"/>
        <stop busStop="3068257018" duration="30.00"/>
    </vehicle>

    <vehicle id="64_bus_121:1" type="pt_bus" depart="483.00" departLane="0" arrival="637.00">
        <route edges="27531049#0 27531049#2 27531049#3 27531049#4 27531049#5 27531049#6 392589607#1 392589607#3"/>
        <stop busStop="3883265532" duration="30.00"/>
    </vehicle>

    <vehicle id="44_bus_109:1" type="pt_bus" depart="334.00" departLane="0" arrival="766.00">
        <route edges="-558323894 -24508781#3 -24508781#2 -24508781#1 -24508781#0 -688229200 -1035471357#1 -1035471357#0 -8026844#4 -8026844#2 -8026844#1 -8026844#0 -387155261#3 -387155261#2 -387155261#0 -387296028#2 -387296028#1 -387296028#0 -1035471354 -794514058 -788313637 -956612326 -1035471353 -199665487#0 -592426952 766727735 159822900 1168323015#1 1168323014 94166210#0 94166210#1 386832701#0 386832701#1 442274134 386832702 -378237356 -23316466 442274132 442274138 386832703#0 386832703#1 135078201 -283413806 -316354387#0 156260258 -386500268#0"/>
        <stop busStop="-3904477592" duration="30.00"/>
    </vehicle>

    <vehicle id="43_bus_109:0" type="pt_bus" depart="331.00" departLane="0" arrival="826.00">
        <route edges="-386500268#0 316354387#0 316354387#1 -135078201 -386832703#1 -386832703#0 -442274138 -442274132 -169220423 378237356 442274136 442274140 29138343#0 29138343#1 488705428#0 488705428#1 488705428#2 -442274142 -1168323015#1 -1168323015#0 -410089906 592426952 199665487#0 199665487#1 956612326 23316365 794514058 1035471354 387296028#0 387296028#1 387296028#2 387155261#0 387155261#2 387155261#3 8026844#0 8026844#1 8026844#2 8026844#4 1035471357#0 1035471357#1 688229200 24508781#0 24508781#1 24508781#2 24508781#3 558323894"/>
        <stop busStop="-6501810816" duration="30.00"/>
        <stop busStop="-2648044989" duration="30.00"/>
    </vehicle>

    <vehicle id="40_bus_105:1" type="pt_bus" depart="303.00" departLane="0" arrival="840.00">
        <route edges="-392441930 -386500268#0 316354387#0 316354387#1 -135078201 -386832703#1 -386832703#0 -442274138 -442274132 -169220423 378237356 442274136 442274140 29138343#0 29138343#1 488705428#0 488705428#1 488705428#2 -442274142 -1168323015#1 -1168323015#0 -410089906 592426952 410089904 24608218 60233475 42229181 202223882 169127822#0 169127822#1 -1030803965#1 9514889#0 9514889#1 9514889#2 385405396 675674219 675674221"/>
        <stop busStop="-3566577209" duration="30.00"/>
        <stop busStop="-3872841444" duration="30.00"/>
    </vehicle>

    <vehicle id="10_bus_122:0" type="pt_bus" depart="60.00" departLane="0" arrival="844.00">
        <route edges="-392441930 -386500268#0 316354387#0 316354387#1 -135078201 -386832703#1 -386832703#0 -442274138 -442274132 -169220423 378237356 -378237356 -23316466 442274132 442274138 386832703#0 386832703#1 135078201 -283413806 -316354387#0 -105914659#1 -675777502 -316354392 -146911733 -468914851 4811517 26738365#0 26738365#1 265461450 423481774#0 423481774#1 220150010 10492736 345736590 345736590-AddedOffRampEdge 345736580 180667064#0 345736584 265461444#0 692610294 1157387458 345736587#0 345736587#1 30998717#0 -30998716#1 23032776#0 432904401 448036755#0 448036755#1 -264621638#1 -264621638#0 -943526837 -163737796 23094824#0 23094824#1 23100755#0 23100755#1 1086199881 1062836785#1 448974989 697552595#1 23100738#0 23100738#1 37721059 1086199879#0 1086199879#1 448036753 231875715#0 231875715#1"/>
        <stop busStop="-3566577209" duration="30.00"/>
        <stop busStop="-3872841444" duration="30.00"/>
    </vehicle>

    <vehicle id="25_bus_102:2" type="pt_bus" depart="160.00" departLane="0" arrival="860.00">
        <route edges="899604572#2 1088871993#0 1088871993#1 448974993#0 448974993#1 448974993#2 169095987 261543560#0 261543560#1 176337397 261543547#0 176337392 261543546 24994689 182054708#1 261543529-AddedOnRampEdge 261543529 261543528 243216783 243216837 243216829 613392718 345712781 180667073 386827126#0 386827126#1 423481788#0 423481788#1 220150011#0 220150011#1 423481777-AddedOnRampEdge 423481777 265461447 693946729#1 -138203748#1 -138203748#0 -180784446#0 -474485750#1 -474485750#0 -474485753 -474485743 -474485745#2 -474485745#1 -474485745#0 -474485742 -182058678#2 -182058678#1 -182058678#0 -474485738 -107757511 -474485739 -474485740 -474485741#1 -474485741#0 183049617 921020467#0 921020467#2 921020466#0 921020465#0 921020465#1 183049957#0 183049957#1 331752492#1 331752492#2 331752494 1169441387 23999291#0 23999291#1 -25531363#1 1180261353#1 1023926180#1 1023926180#2 37178375 -25973412#2 -25973412#1 -25973412#0 -30998700#0 23439929#0 23439929#2 23439929#3 23439929#4 23439929#5 23439929#6 -25576460#1 -25576460#0"/>
        <stop busStop="3872841448" duration="30.00"/>
    </vehicle>

    <vehicle id="6_bus_138:0" type="pt_bus" depart="47.00" departLane="0" arrival="875.00">
        <route edges="181647035 31133710 391056744 391056745 391056746#0 391056746#1 391056746#2 391056746#4 391056747 391056748#0 391056748#1 391056748#3 412792772 23724230#0 23724230#1 23724230#2 23724230#3 23724224#0 37181833#0 37181833#1 23724225 45524884#0 45524884#1 45524884#2 45524884#3 45524884#4 45524884#5 45524884#6 45524884#7 135078198 1162834479#1 758088379#0 -758088380 -696225646#3 -696225646#2 -696225646#1 -387296014#1 -387296014#0 -22889927#4 -22889927#2 -22889927#0 -758088377#2 -758088377#1 -758088377#0 -758088376#0 -38361908#1 -183049933#0 -1164287131#2 -1164287131#0 38361907 694116204#0 694116204#1 694116204#2 694116203 22889926#1 22889926#2 474485741#0 474485741#1 474485740 474485739 107757511 4813444 921022239 -324049626 -28676144 -474485729 -474485730#0 -107757514 -474485728 -390216938 -24447759#1 -24447759#0 -204724398 -386239008 -204724401 -4813442 385259858 24782849#0 220797339"/>
        <stop busStop="29027118" duration="30.00"/>
    </vehicle>

    <vehicle id="37_bus_104:2" type="pt_bus" depart="237.00" departLane="0" arrival="916.00">
        <route edges="27531049#0 27531049#2 27531049#3 27531049#4 27531049#5 27531049#6 392589607#1 392589607#3 -25752783#2 -25752783#1 -25752783#0 -474485724 27396983 390216941 390216942 474485723#0 474485723#1 474485723#2 474485723#3 474485722 24008852#0 24008852#2 24008852#3 474485721 24008850#0 474485720 24302935 -390216943 -24511285#2 -24511285#1 189364993#0 -178668743 -202630135 -387401256#1 -290577631 163737798 182055123#0 182055123#1 1157387449#0 1157387449#1 1157387455 1157387457 31787956 911970184 911970185 939228251 178668745 -332292229 -384972985 -384972984 -233802788 -392441930 386500268#1"/>
    </vehicle>

    <vehicle id="38_bus_104:3" type="pt_bus" depart="253.00" departLane="0" arrival="921.00">
        <route edges="27531049#0 27531049#2 27531049#3 27531049#4 27531049#5 27531049#6 392589607#1 392589607#3 -25752783#2 -25752783#1 -25752783#0 -474485724 27396983 390216941 390216942 474485723#0 474485723#1 474485723#2 474485723#3 474485722 24008852#0 24008852#2 24008852#3 474485721 24008850#0 474485720 24302935 -390216943 -24511285#2 -24511285#1 189364993#0 -178668743 -202630135 -387401256#1 -290577631 163737798 182055123#0 182055123#1 1157387449#0 1157387449#1 1157387455 1157387457 31787956 911970184 911970185 939228251 178668745 -332292229 -384972985 -384972984 -233802788 -392441930 386500268#1"/>
        <stop busStop="3883265532" duration="30.00"/>
    </vehicle>

    <vehicle id="46_bus_110:1" type="pt_bus" depart="353.00" departLane="0" arrival="925.00">
        <route edges="-13622251#2 -13622251#1 -13622251#0 -560583353#2 -560583353#1 -560583354 -538358998#2 -538358998#1 -538358998#0 -12099349 387155267 -538358997#1 -538358997#0 -538358996#4 -538358996#3 -538358996#2 -169127787#1 -169127787#0 -34424782#2 -34424782#1 23528255#0 23528255#1 -552812219 -12099342#3 -12099342#1 -12099342#0 -387155256 -410089903#1 -410089903#0 -654570576#1 -654570576#0 -387155255#1 -34424783#2 -34424783#1 -34424783#0 -26734306#1 -26734306#0 -387296028#2 -387296028#1 -387296028#0 -1035471354 -794514058 -788313637 -956612326 -1035471353 -199665487#0 -592426952 766727735 159822900 1168323015#1 1168323014 94166210#0 94166210#1 386832701#0 386832701#1 442274134 386832702 -378237356 -23316466 442274132 442274138 386832703#0 386832703#1 135078201 -283413806 -316354387#0 156260258"/>
        <stop busStop="-109597420" duration="30.00"/>
    </vehicle>

    <vehicle id="7_bus_108:0" type="pt_bus" depart="52.00" departLane="0" arrival="926.00">
        <route edges="-386500268#0 316354387#0 316354387#1 -135078201 -386832703#1 -386832703#0 -442274138 -442274132 -169220423 378237356 442274136 442274140 29138343#0 29138343#1 488705428#0 488705428#1 488705428#2 29138344 202572138 -23320738#2 -23320738#1 -23320738#0 -29139497#2 562273438 23329044 694012882 694012897#0 694012897#1 29139496 386831073 694012900#0 694012900#1 694012881 694012904 -386831074 -386831075 -8812305#1 -8812305#0 -785623014 -787951055 -385405407#2 -385405407#1 -385405407#0 -787951056#0 -785623013#1 -785623013#0 -385405398 281956710#0 281956711#0 281956711#1 281921554 -186037710 -436153519 -787900923 -385405402 -186037699#1 -202555475#11 -202555475#10 -202555475#9 -202555475#8 -202555475#7 -202555475#6 -202555475#4 -202555475#3 -202555475#2 -202555478#1 -202555478#0 -202499351#3 -555758425#0 202499352#0 202499352#1 390062306 202499354 280124330#1 -280092583 280092621#0 280092644 -280092614 -280128590 390062310 280092655 -560583335#1 -560583335#0 -560583334 -31133704#6 -31133704#5 -31133704#4 -31133704#3 -31133704#2 -31133704#1 -31133704#0 -412792788#2 26684108#0 26684108#1 26684108#2 26684108#3 -412792789#1 -412792789#0 -31133705#1 -31133705#0 -25812052 386500264#0 386500264#3 386500264#8 -386500264#10 -386500264#7 -386500264#2"/>
        <stop busStop="-3566577210" duration="30.00"/>
        <stop busStop="-3872841444" duration="30.00"/>
    </vehicle>

    <vehicle id="16_trolleybus_118:0" type="pt_trolleybus" depart="126.00" departLane="0" arrival="930.00">
        <route edges="-926867318 -345736606 -265450242 -23182939 -926867322 -265461454 345736599 1157387459#0 11335855#0 11335855#1 265461445#0 169097422 265461443 345736597 345736596 423481788#0 423481788#1 220150011#0 220150011#1 423481777-AddedOnRampEdge 423481777 265461451 23205595 350147738 10492734#0 10492734#1 17096026 156260261 138203611#0 138203611#1 163737798 182055123#0 182055123#1 1157387449#0 1157387449#1 1157387455 1157387457 31787956 911970184 911970185 939228251 178668745 146911733 316354392 675777502 -675777502 -316354392 -146911733 -468914851 4811517 26738365#0 26738365#1 265461450 423481774#0 423481774#1 220150010 10492736 345736590 345736590-AddedOffRampEdge 345736580 180667064#0 345736584 265461444#0 692610294 1157387458 345736587#0 345736587#1 30998717#0 11335846#1 926867325 345736604 926867324 265461454 926867322 23182939 265450242 345736606 686955221 345736600 -345736598"/>
        <stop busStop="3224629436" duration="30.00"/>
        <stop busStop="3933810892" duration="30.00"/>
        <stop busStop="2711169196" duration="30.00"/>
    </vehicle>

    <vehicle id="35_bus_104:0" type="pt_bus" depart="227.00" departLane="0" arrival="943.00">
        <route edges="386500268#1 -350217704#2 -350217704#1 -350217704#0 109592895 17097227 290577629#0 290577631 387401256#1 178668744 178668743 -189364993#0 24511285#1 24511285#2 390216943 -24302935 -474485720 -24008850#0 -474485721 -24008852#3 -24008852#2 -24008852#0 -474485722 -474485723#3 -474485723#2 -474485723#1 -474485723#0 -390216942 -390216941 -27396983 474485725 25752783#0 25752783#1 25752783#2 -392589607#3 -392589607#1 -392589607#0 -27531049#5 -27531049#4 -27531049#3 -27531049#2 -27531049#1"/>
        <stop busStop="3566577208" duration="30.00"/>
        <stop busStop="-6515317595" duration="30.00"/>
    </vehicle>

    <vehicle id="48_bus_111:1" type="pt_bus" depart="365.00" departLane="0" arrival="946.00">
        <route edges="-387155257#0 -23471056#3 -23471056#2 -23471056#1 -23471056#0 688229195 553076445#1 553076445#2 31157172#1 31157172#2 23275131#0 23275131#1 23275131#2 23275131#3 184749081#0 184749081#2 184749081#3 184749081#4 23463903#0 23463903#1 -1035471353 -199665487#0 -592426952 766727735 159822900 1168323015#1 1168323014 94166210#0 94166210#1 386832701#0 386832701#1 442274134 386832702 -378237356 -23316466 442274132 442274138 386832703#0 386832703#1 135078201 -283413806 -316354387#0 156260258 386500268#1 -392441930"/>
        <stop busStop="-3904767704" duration="30.00"/>
    </vehicle>

    <vehicle id="26_bus_102:3" type="pt_bus" depart="166.00" departLane="0" arrival="963.00">
        <route edges="899604572#2 1088871993#0 1088871993#1 448974993#0 448974993#1 448974993#2 169095987 261543560#0 261543560#1 176337397 261543547#0 176337392 261543546 24994689 182054708#1 261543529-AddedOnRampEdge 261543529 261543528 243216783 243216837 243216829 613392718 345712781 180667073 386827126#0 386827126#1 423481788#0 423481788#1 220150011#0 220150011#1 423481777-AddedOnRampEdge 423481777 265461447 693946729#1 -138203748#1 -138203748#0 -180784446#0 -474485750#1 -474485750#0 -474485753 -474485743 -474485745#2 -474485745#1 -474485745#0 -474485742 -182058678#2 -182058678#1 -182058678#0 -474485738 -107757511 -474485739 -474485740 -474485741#1 -474485741#0 183049617 921020467#0 921020467#2 921020466#0 921020465#0 921020465#1 183049957#0 183049957#1 331752492#1 331752492#2 331752494 1169441387 23999291#0 23999291#1 -25531363#1 1180261353#1 1023926180#1 1023926180#2 37178375 -25973412#2 -25973412#1 -25973412#0 -30998700#0 23439929#0 23439929#2 23439929#3 23439929#4 23439929#5 23439929#6 -25576460#1 -25576460#0"/>
        <stop busStop="3872841448" duration="30.00"/>
    </vehicle>

    <vehicle id="5_train_S1:0" type="pt_train" depart="27.00" departLane="0" arrival="1029.00">
        <route edges="292876200#0 292876200#1 68908209#0 68908209#1 292876202#0 292876202#1 454381995 102807136#1 102807136#2 102848495#1 102848495#2 102848495#3 102848495#4 454381994#1 292876199#0 292876199#1 292876199#2 292876199#3 292876199#4 180784454#1 180784454#2 180784454#3"/>
        <stop busStop="263337116" duration="30.00"/>
        <stop busStop="263337125" duration="30.00"/>
        <stop busStop="1187584571" duration="30.00"/>
        <stop busStop="1187534664" duration="30.00"/>
        <stop busStop="3082151227" duration="30.00"/>
        <stop busStop="1187477995" duration="30.00"/>
    </vehicle>

    <vehicle id="0_bus_114:0" type="pt_bus" depart="3.00" departLane="0" arrival="1043.00">
        <route edges="384972991#1 -350217704#3 -350217704#2 -350217704#1 -350217704#0 109592895 17097227 290577629#0 290577631 387401256#1 178668744 178668743 54883018#1 54883018#2 54883018#3 4807837#0 4807837#1 4807837#2 275526211 -4811453#7 -4811453#6 -4811453#5 -4811453#4 -4811453#3 -4811453#2 -4811453#1 -273990571#6 -273990571#5 -273990571#4 -273990571#3 -273990571#2 -273990571#1 -273990571#0 -273990570 -183419042#11 -183419042#10 -183419042#9 -183419042#8 -183419042#7 -183419042#4 -183419042#3 -183419042#2 -183419042#1 -183419042#0 26249185#0 26249185#1 26249185#3 183049934 1164287131#0 1164287131#1 183049933#0 38361908#1 758088376#0 758088377#0 758088377#1 758088377#2 22889927#0 22889927#2 22889927#4 387296014#0 387296014#1 696225646#1 696225646#2 696225646#3 130569446 758088378#0 758088378#1 37181834#0 37181834#1 37181834#2 37181834#3 57852607#0 57852607#1 57852607#2"/>
        <stop busStop="2739052081" duration="30.00"/>
        <stop busStop="-1254192526" duration="30.00"/>
        <stop busStop="1219607572" duration="30.00"/>
        <stop busStop="2626499005" duration="30.00"/>
    </vehicle>

    <vehicle id="9_bus_131:0" type="pt_bus" depart="58.00" departLane="0" arrival="1047.00">
        <route edges="675777502 675777502 -350217704#2 -231875720#0"/>
        <stop busStop="3224629436" duration="30.00"/>
        <stop busStop="-3872841443" duration="30.00"/>
    </vehicle>

    <vehicle id="28_bus_102:5" type="pt_bus" depart="173.00" departLane="0" arrival="1049.00">
        <route edges="899604572#2 1088871993#0 1088871993#1 448974993#0 448974993#1 448974993#2 169095987 261543560#0 261543560#1 176337397 261543547#0 176337392 261543546 24994689 182054708#1 261543529-AddedOnRampEdge 261543529 261543528 243216783 243216837 243216829 613392718 345712781 180667073 386827126#0 386827126#1 423481788#0 423481788#1 220150011#0 220150011#1 423481777-AddedOnRampEdge 423481777 265461447 693946729#1 -138203748#1 -138203748#0 -180784446#0 -474485750#1 -474485750#0 -474485753 -474485743 -474485745#2 -474485745#1 -474485745#0 -474485742 -182058678#2 -182058678#1 -182058678#0 -474485738 -107757511 -474485739 -474485740 -474485741#1 -474485741#0 183049617 921020467#0 921020467#2 921020466#0 921020465#0 921020465#1 183049957#0 183049957#1 331752492#1 331752492#2 331752494 1169441387 23999291#0 23999291#1 -25531363#1 1180261353#1 1023926180#1 1023926180#2 37178375 -25973412#2 -25973412#1 -25973412#0 -30998700#0 23439929#0 23439929#2 23439929#3 23439929#4 23439929#5 23439929#6 -25576460#1 -25576460#0"/>
        <stop busStop="3872841448" duration="30.00"/>
    </vehicle>

    <vehicle id="23_bus_102:0" type="pt_bus" depart="158.00" departLane="0" arrival="1060.00">
        <route edges="25576460#0 25576460#1 -23439929#6 -23439929#5 -23439929#4 -23439929#3 -23439929#2 -23439929#0 -23439923 37177743#0 37177743#1 37177743#2 391001058 387401249#1 387401249#2 283020993#1 283020993#2 283020993#3 283020993#4 -25973409#3 -25973409#2 -25973409#1 -25973409#0 -1180261355 -1180261351 -4811464 4807776#0 4807776#1 758088375#0 -183049933#0 -1164287131#2 -1164287131#0 38361907 183419043#0 183419043#1 183419043#2 183419042#0 183419042#1 183419042#2 183419042#3 183419042#4 183419042#6 183419042#8 183419042#9 183419042#10 183419042#11 273990570 273990571#0 273990571#1 273990571#2 273990571#3 273990571#4 273990571#5 273990571#6 4811453#1 4811453#2 4811453#3 4811453#4 4811453#5 4811453#6 4811453#7 -275526211 -4807837#2 -4807837#1 -4807837#0 -54883018#3 -54883018#2 -54883018#1 -178668743 -202630135 -387401256#1 -290577631 1157387454#0 1157387454#1 138203609#0 138203610 387155262 156260255#0 156260255#1 156260255#2 156260255#3 138203607 4807840 26738365#0 26738365#1 8080009 423481795#1 345736610#1 133487398#1 346002998 346002984 243261562 613391027 383945638 261543545 261543549#0 261543534 24447630 4067008 176337394 261543542 261543555 24994574#0 24994574#1 383983734 -261543560#1 -261543560#0 -169095987 -448974993#2 -448974993#1 -448974993#0 -1088871993#1 -1088871993#0 -1088247274 -899604572#1 899604572#0 899604572#2"/>
        <stop busStop="2869390122" duration="30.00"/>
    </vehicle>

    <vehicle id="18_bus_122:1" type="pt_bus" depart="132.00" departLane="0" arrival="1074.00">
        <route edges="-231875715#2 -231875715#0 -448036753 -1086199879#1 -1086199879#0 -37721059 -23100738#1 -23100738#0 -697552595#1 -448974989 -1062836785#1 -1086199881 -23100755#1 -23100755#0 22910685#0 22910685#1 163737796 943526836 653561652 264621638#1 -448036755#1 -448036755#0 -432904401 -23032776#0 30998716#0 11335855#0 11335855#1 265461445#0 169097422 265461443 345736597 345736596 423481788#0 423481788#1 220150011#0 220150011#1 423481777-AddedOnRampEdge 423481777 265461451 23205595 350147738 10492734#0 10492734#1 17096026 156260261 138203611#0 138203611#1 163737798 182055123#0 182055123#1 1157387449#0 1157387449#1 1157387455 1157387457 31787956 911970184 911970185 939228251 178668745 -332292229 -384972985 -384972984 -233802788 -392441930"/>
        <stop busStop="-6262815029" duration="30.00"/>
    </vehicle>

    <vehicle id="39_bus_105:0" type="pt_bus" depart="275.00" departLane="0" arrival="1084.00">
        <route edges="675674221 675674220#1 -385405396 16361896 -16361899#3 -16361899#2 -16361899#0 537710741#1 537710741#2 537710741#3 537710741#4 387296020 169127813#0 169127813#2 169127813#3 169127813#4 169127813#5 787951054 8812305#1 386831075 386831074 694012903 4807779#0 4807779#1 694012899#0 694012899#1 38361911#0 4807781#0 4807781#1 4807784#0 4807784#1 661603871 661603873#0 661603873#1 10419532#1 156260261 138203611#0 138203611#1 163737798 182055123#0 182055123#1 1157387449#0 1157387449#1 1157387455 1157387457 31787956 911970184 911970185 939228251 178668745 -332292229 -384972985 -384972984 -233802788 -392441930"/>
        <stop busStop="6327610134" duration="30.00"/>
    </vehicle>

    <vehicle id="68_bus_132:2" type="pt_bus" depart="505.00" departLane="0" arrival="1099.00">
        <route edges="-13622251#2 -13622251#1 -13622251#0 -560583353#2 -560583353#1 -560583354 -538358998#2 -538358998#1 -538358998#0 -12099349 387155267 12098783 387155266 12098881#0 12098881#1 12098881#2 12098881#3 12098881#4 12098881#5 12098881#6 12098881#7 12098881#8 205275738#0 205275738#1 202499345#0 202499345#1 387155265 202499353#0 202499353#1 555758425#0 202499351#0 202555478#0 202555478#1 202555475#2 202555475#3 202555475#4 202555475#6 202555475#7 202555475#8 202555475#9 202555475#10 202555475#11 186037699#0 385405402 787900923 436153519 186037710 -281921554 -281956711#1 -281956711#0 -281956710#1 -281956702#2 -281956702#1 -281966910#2 -281966910#1 -281966910#0 -993217766 -281956697 -281966915#4 -281966915#3 -281956703 -281966912 -998175513 -281956698#0 -169098294#3 -169098294#1 -281956700#2 -281956700#0 -281956705#6 -281956705#3 -23725458#5 -23725458#4 -23725458#3 -23725458#2 37177744#1 37177744#2 37177744#3 -283020995 283020996#0 283020996#1 25973409#3 -283020993#4 -283020993#3 -283020993#2 -283020993#1 -283020993#0 -387401249#1 -391001058 -23059671#7 -23059671#6 -23059671#5 -23059671#4 -23059671#3 -23059671#2 -23059671#0"/>
        <stop busStop="-109597420" duration="30.00"/>
    </vehicle>

    <vehicle id="65_bus_131:1" type="pt_bus" depart="484.00" departLane="0" arrival="1127.00">
        <route edges="231875720#0 -158355468#1 316354392"/>
        <stop busStop="-3968318269" duration="30.00"/>
    </vehicle>

    <vehicle id="32_bus_103:3" type="pt_bus" depart="204.00" departLane="0" arrival="1135.00">
        <route edges="1088879786#0 1088879786#1 10424183#1 10424183#2 10424183#3 10424183#4 432904514 432904515 4066943#0 4066943#2 4066943#3 4066943#5 4066943#6 23119545 23108338 448974992#0 448974992#1 448974992#2 1088247375 118976653 167641315#0 167641315#1 167641315#2 169095987 261543560#0 261543560#1 176337397 261543547#0 176337392 261543546 24994689 182054708#1 261543529-AddedOnRampEdge 261543529 261543528 243216783 243216837 243216829 613392718 345712781 180667073 386827126#0 386827126#1 423481788#0 423481788#1 220150011#0 220150011#1 423481777-AddedOnRampEdge 423481777 265461447 693946729#1 -138203748#1 -138203748#0 -180784446#0 -474485750#1 -474485750#0 -474485753 -474485743 -474485745#2 -474485745#1 -474485745#0 -474485742 -182058678#2 -182058678#1 -182058678#0 -474485738 -107757511 -474485739 -474485740 -474485741#1 -474485741#0 183049617 921020467#0 921020467#2 921020466#0 921020465#0 921020465#1 183049957#0 183049957#1 331752492#1 331752492#2 331752494 1169441387 23999291#0 23999291#1 -25531363#1 1180261353#1 1023926180#1 1023926180#2 37178375 -25973412#2 -25973412#1 -25973412#0 -30998700#0 23439929#0 23439929#2 23439929#3 23439929#4 23439929#5 23439929#6 -25576460#1 -25576460#0"/>
        <stop busStop="1786518020" duration="30.00"/>
    </vehicle>

    <vehicle id="24_bus_102:1" type="pt_bus" depart="163.00" departLane="0" arrival="1141.00">
        <route edges="25576460#0 25576460#1 -23439929#6 -23439929#5 -23439929#4 -23439929#3 -23439929#2 -23439929#0 -23439923 37177743#0 37177743#1 37177743#2 391001058 387401249#1 387401249#2 283020993#1 283020993#2 283020993#3 283020993#4 -25973409#3 -25973409#2 -25973409#1 -25973409#0 -1180261355 -1180261351 -4811464 4807776#0 4807776#1 758088375#0 -183049933#0 -1164287131#2 -1164287131#0 38361907 183419043#0 183419043#1 183419043#2 183419042#0 183419042#1 183419042#2 183419042#3 183419042#4 183419042#6 183419042#8 183419042#9 183419042#10 183419042#11 273990570 273990571#0 273990571#1 273990571#2 273990571#3 273990571#4 273990571#5 273990571#6 4811453#1 4811453#2 4811453#3 4811453#4 4811453#5 4811453#6 4811453#7 -275526211 -4807837#2 -4807837#1 -4807837#0 -54883018#3 -54883018#2 -54883018#1 -178668743 -202630135 -387401256#1 -290577631 1157387454#0 1157387454#1 138203609#0 138203610 387155262 156260255#0 156260255#1 156260255#2 156260255#3 138203607 4807840 26738365#0 26738365#1 8080009 423481795#1 345736610#1 133487398#1 346002998 346002984 243261562 613391027 383945638 261543545 261543549#0 261543534 24447630 4067008 176337394 261543542 261543555 24994574#0 24994574#1 383983734 -261543560#1 -261543560#0 -169095987 -448974993#2 -448974993#1 -448974993#0 -1088871993#1 -1088871993#0 -1088247274 -899604572#1 899604572#0 899604572#2"/>
        <stop busStop="2869390122" duration="30.00"/>
    </vehicle>

    <vehicle id="34_bus_103:5" type="pt_bus" depart="223.00" departLane="0" arrival="1141.00">