<?xml version="1.0" encoding="UTF-8"?>

<!-- generated on 2024-04-10 08:13:54 by Eclipse SUMO sumo Version 1.19.0
<configuration xmlns:xsi="http://www.w3.org/2001/XMLSchema-instance" xsi:noNamespaceSchemaLocation="http://sumo.dlr.de/xsd/sumoConfiguration.xsd">

    <input>
        <net-file value="fake.net.xml"/>
        <route-files value="trips.trips.xml"/>
        <additional-files value="additional.xml"/>
    </input>

    <output>
        <vehroute-output value="vehroutes.xml"/>
        <stop-output value="stopinfos.xml"/>
    </output>

    <time>
        <begin value="0"/>
    </time>

    <processing>
        <ignore-route-errors value="true"/>
    </processing>

    <routing>
        <device.rerouting.adaptation-interval value="0"/>
    </routing>

    <report>
        <aggregate-warnings value="5"/>
        <error-log value="trips.trips.xml.errorlog"/>
        <no-step-log value="true"/>
    </report>

</configuration>
-->

<routes xmlns:xsi="http://www.w3.org/2001/XMLSchema-instance" xsi:noNamespaceSchemaLocation="http://sumo.dlr.de/xsd/routes_file.xsd">
    <vehicle id="0_bus_N177:0" type="pt_bus" depart="0.00" departLane="0" arrival="76.00">
        <route edges="418182139#1"/>
        <stop busStop="4186355782" duration="30.00"/>
        <stop busStop="4186355762" duration="30.00"/>
    </vehicle>

    <vehicle id="1_bus_N177:1" type="pt_bus" depart="6.00" departLane="0" arrival="146.00">
        <route edges="418182139#1"/>
        <stop busStop="4186355782" duration="30.00"/>
        <stop busStop="4186355762" duration="30.00"/>
    </vehicle>

    <vehicle id="69_bus_64:1" type="pt_bus" depart="0.00" departLane="0" arrival="155.00">
        <route edges="168510739#2 168510739#3 168510739#4 168510739#5"/>
        <stop busStop="1672755448" duration="30.00"/>
        <stop busStop="1672755469" duration="30.00"/>
    </vehicle>

    <vehicle id="4_bus_771:0" type="pt_bus" depart="42.00" departLane="0" arrival="184.00">
        <route edges="418182139#1"/>
        <stop busStop="4186356390" duration="30.00"/>
        <stop busStop="4186355782" duration="30.00"/>
    </vehicle>

    <vehicle id="26_bus_236:0" type="pt_bus" depart="45.00" departLane="0" arrival="197.00">
        <route edges="640655568#1"/>
        <stop busStop="4186356400" duration="30.00"/>
        <stop busStop="4186356396" duration="30.00"/>
    </vehicle>

    <vehicle id="53_light_rail_U3:0" type="pt_light_rail" depart="0.00" departLane="0" arrival="201.00">
        <route edges="673702785 57981216#1 57981216#2 57981216#3 57981216#4 57981216#5 57981216#6 57981216#7 57981216#8"/>
        <stop busStop="1745866243" duration="30.00"/>
        <stop busStop="9936190" duration="30.00"/>
    </vehicle>

    <vehicle id="54_light_rail_U3:1" type="pt_light_rail" depart="0.00" departLane="0" arrival="205.00">
        <route edges="36824689#0 36824689#1 36824689#2 36824689#3 36824689#4 36824689#5 36824689#6 36824689#7 36824689#8"/>
        <stop busStop="4165943334" duration="30.00"/>
        <stop busStop="3750538853" duration="30.00"/>
    </vehicle>

    <vehicle id="116_train_S3:1" type="pt_train" depart="0.00" departLane="0" arrival="233.00">
        <route edges="27472931 277766716#0 277766716#1 277766716#3 316094402 27472810#1"/>
        <stop busStop="301647801" duration="30.00"/>
        <stop busStop="301914553" duration="30.00"/>
    </vehicle>

    <vehicle id="120_light_rail_U13:0" type="pt_light_rail" depart="0.00" departLane="0" arrival="249.00">
        <route edges="673171637 172027782#0 172027782#1 172027782#2 172027782#3 172027782#4 172027782#5 172027782#6 172027782#7 172027782#8 172027782#9 172027782#10 172027782#11 172027782#12 172027782#13"/>
        <stop busStop="4165943332" duration="30.00"/>
        <stop busStop="26407025" duration="30.00"/>
        <stop busStop="26407024" duration="30.00"/>
        <stop busStop="1749738363" duration="30.00"/>
    </vehicle>

    <vehicle id="121_light_rail_U13:1" type="pt_light_rail" depart="0.00" departLane="0" arrival="254.00">
        <route edges="68552415#0 68552415#3 68552415#4 68552415#5 68552415#6 68552415#7 68552415#8 68552415#9 68552415#10 68552415#11 68552415#12 68552415#13 68552415#14 68552415#15 172027783"/>
        <stop busStop="279915707" duration="30.00"/>
        <stop busStop="279915677" duration="30.00"/>
        <stop busStop="279915667" duration="30.00"/>
        <stop busStop="279930071" duration="30.00"/>
    </vehicle>

    <vehicle id="2_bus_101:0" type="pt_bus" depart="0.00" departLane="0" arrival="255.00">
        <route edges="640655568#1 418182139#1"/>
        <stop busStop="4186356408" duration="30.00"/>
        <stop busStop="4186356400" duration="30.00"/>
        <stop busStop="4186356390" duration="30.00"/>
        <stop busStop="4186355782" duration="30.00"/>
        <stop busStop="4186355762" duration="30.00"/>
    </vehicle>

    <vehicle id="210_light_rail_U9:0" type="pt_light_rail" depart="51.00" departLane="0" arrival="265.00">
        <route edges="673171637 172027782#0 172027782#1 172027782#2 172027782#3 172027782#4 172027782#5 172027782#6 172027782#7 172027782#8 172027782#9 172027782#10 172027782#11 172027782#12 172027782#13"/>
        <stop busStop="4165943332" duration="30.00"/>
        <stop busStop="26407025" duration="30.00"/>
        <stop busStop="26407024" duration="30.00"/>
    </vehicle>

    <vehicle id="33_light_rail_U12:0" type="pt_light_rail" depart="0.00" departLane="0" arrival="271.00">
        <route edges="37538568#1 229329611 40928226#0 40928226#1 40928225 30015492#0 30015492#1 30015492#2 229329604#0 229329604#1 229329604#2"/>
        <stop busStop="498454613" duration="30.00"/>
        <stop busStop="280139053" duration="30.00"/>
        <stop busStop="20968183" duration="30.00"/>
    </vehicle>

    <vehicle id="70_bus_61:1" type="pt_bus" depart="0.00" departLane="0" arrival="279.00">
        <route edges="431444776 431444780#0 431444780#1 431444780#2 431444780#3 548813064#1 548813063 29462298#0 29462298#1 29462298#2 -548669406 -548669407 -548669410#0 -317544600#2 -317544600#1 -317544600#0 -288806326#2 -288806326#1 -288806326#0 -5782992#1 -5782992#0 5783099#0 5783099#1 5783099#2 288808359 288806325#0 288806325#1 36989666 548626555 -36990115 -676917368#0"/>
        <stop busStop="269253233" duration="30.00"/>
        <stop busStop="895825832" duration="30.00"/>
        <stop busStop="-5300400686" duration="30.00"/>
        <stop busStop="-895825744" duration="30.00"/>
    </vehicle>

    <vehicle id="38_bus_811:0" type="pt_bus" depart="0.00" departLane="0" arrival="280.00">
        <route edges="22819020 -21862308#1 -21862308#0 -1011040785#5 -1011040785#4 -1011040785#3 -1011040785#2 -1011040785#1 -1011040785#0 -21862287#1 -21862287#0 -21862282#9 -21862282#8 -21862282#7 -21862282#6 -21862282#5 -21862282#4 -21862282#3 -21862282#2 -21862282#1 -21862282#0"/>
        <stop busStop="332547455" duration="30.00"/>
        <stop busStop="-9327822255" duration="30.00"/>
        <stop busStop="-4200659602" duration="30.00"/>
    </vehicle>

    <vehicle id="41_bus_X82:0" type="pt_bus" depart="0.00" departLane="0" arrival="282.00">
        <route edges="-1054088819#0 -231420939#0 -1008707929 1008707930#0 1008707930#1 53563542#0 53563542#1 53563542#2 1072636971 1072636976 1008707903#0 1008707903#1 1012208470 1012208463 231420940 1012208472 1012208471 22743682 11554448 1012208464 -1012208465 -32321312 1012208466#0 1012208466#1 32321308#0 32321308#1 32321308#2 32321308#3 32321314"/>
        <stop busStop="-6864708194" duration="30.00"/>
        <stop busStop="2426071392" duration="30.00"/>
    </vehicle>

    <vehicle id="35_train_RE_5:0" type="pt_train" depart="0.00" departLane="0" arrival="317.00">
        <route edges="156199094#3 102848475#1 102848507#0 102848507#1 460942121#0 460942121#1 25423242#1 85959749#1 68906765 70395557#1 48316096#2"/>
        <stop busStop="2661523902" duration="30.00"/>
        <stop busStop="3068257018" duration="30.00"/>
    </vehicle>

    <vehicle id="124_bus_828:1" type="pt_bus" depart="6.00" departLane="0" arrival="320.00">
        <route edges="-1054088819#0 -231420939#0 -1008707929 1008707930#0 1008707930#1 53563542#0 53563542#1 53563542#2 1072636971 1072636976 1008707903#0 1008707903#1 1012208470 1012208463 231420940 1012208472 1012208471 22743682 11554448 1012208464 -1012208465 -32321312 1012208466#0 1012208466#1 32321308#0 32321308#1 32321308#2 32321308#3 32321314"/>
        <stop busStop="-6864708194" duration="30.00"/>
        <stop busStop="2426071392" duration="30.00"/>
    </vehicle>

    <vehicle id="3_bus_101:1" type="pt_bus" depart="6.00" departLane="0" arrival="324.00">
        <route edges="640655568#1 418182139#1"/>
        <stop busStop="4186356408" duration="30.00"/>
        <stop busStop="4186356400" duration="30.00"/>
        <stop busStop="4186356390" duration="30.00"/>
        <stop busStop="4186355782" duration="30.00"/>
        <stop busStop="4186355762" duration="30.00"/>
    </vehicle>

    <vehicle id="31_bus_71:1" type="pt_bus" depart="0.00" departLane="0" arrival="333.00">
        <route edges="686700935 686700934#1 25436993#1 25436993#2 25436993#3 25436993#4 25436993#5 25436993#6 25436993#7 -25436993#7 25436993#7 -563908556 -563894574 -4067131#4 -4067131#3 -4067131#2 -4067131#1 -4067131#0 4067131#0 -4067131#0"/>
        <stop busStop="154657074" duration="30.00"/>
        <stop busStop="291000066" duration="30.00"/>
        <stop busStop="440873765" duration="30.00"/>
        <stop busStop="291686818" duration="30.00"/>
        <stop busStop="-440873767" duration="30.00"/>
        <stop busStop="-293635463" duration="30.00"/>
    </vehicle>

    <vehicle id="68_bus_64:0" type="pt_bus" depart="0.00" departLane="0" arrival="349.00">
        <route edges="25660925#1 168510742#1 -81119862 -13864407#2 -13864407#1 -13864407#0 540209944#0 540209944#1 13864463 -168510739#5 -168510739#4 -168510739#3 -168510739#2 -168510739#1 -168510739#0 -23061774#1 -23061774#0 33072214#0 33072214#1"/>
        <stop busStop="1796362860" duration="30.00"/>
        <stop busStop="-1672755469" duration="30.00"/>
        <stop busStop="-1672755448" duration="30.00"/>
        <stop busStop="373109699" duration="30.00"/>
    </vehicle>

    <vehicle id="214_light_rail_U15:2" type="pt_light_rail" depart="0.00" departLane="0" arrival="356.00">
        <route edges="14162752 231117965#0 231117965#1 231117965#2 231117965#3 231117965#4 231117965#5 231117965#6 9837998#0 9837998#1 231117996#0 231118021#0 231118021#1 231118021#2 231117992#0 231117992#1 231117992#2 231117984#0 231117984#1 231117984#2 231117984#3 231118005#0 231118005#1 231118001"/>
        <stop busStop="135274215" duration="30.00"/>
        <stop busStop="3226515115" duration="30.00"/>
        <stop busStop="3226515113" duration="30.00"/>
        <stop busStop="87388046" duration="30.00"/>
    </vehicle>

    <vehicle id="5_bus_771:1" type="pt_bus" depart="220.00" departLane="0" arrival="361.00">
        <route edges="418182139#1"/>
        <stop busStop="4186356390" duration="30.00"/>
        <stop busStop="4186355782" duration="30.00"/>
    </vehicle>

    <vehicle id="63_bus_43:1" type="pt_bus" depart="0.00" departLane="0" arrival="402.00">
        <route edges="283416476#1 283416477#0 283416477#1 283416477#2 24041099#0 24041099#1 24041099#2 24041099#3 600073270#0 600073270#1 600073270#2 600073270#3 303827018#0 303827018#1 668643980#0 668643980#1 600073275#0 600073275#1 600073275#2 602928009#0 602928009#1 602928009#2 602928009#3 3933608#0 3933608#1 3933608#2 602928008 3933614#0 3933614#1 3933614#2 3933614#3 360016685 -150035010#6 -150035010#5 -150035010#4 -150035010#3 -150035010#2 -150035010#1 -150035010#0 -1209687037#2 -1209687037#1 -1209687037#0 23480551#0 23480551#1 361366561 303660229#0 303660229#1 303660229#2"/>
        <stop busStop="874477620" duration="30.00"/>
        <stop busStop="874477622" duration="30.00"/>
        <stop busStop="18241665" duration="30.00"/>
        <stop busStop="-874477617" duration="30.00"/>
        <stop busStop="1670126184" duration="30.00"/>
    </vehicle>

    <vehicle id="28_bus_N42:0" type="pt_bus" depart="89.00" departLane="0" arrival="404.00">
        <route edges="640655568#1 418182139#1"/>
        <stop busStop="4186356396" duration="30.00"/>
        <stop busStop="4186356390" duration="30.00"/>
    </vehicle>

    <vehicle id="40_bus_43:0" type="pt_bus" depart="0.00" departLane="0" arrival="419.00">
        <route edges="-583269554 -303660229#2 -303660229#1 -303660229#0 -361366561 -23480551#1 -23480551#0 1209687037#0 1209687037#1 1209687037#2 150035010#0 150035010#1 150035010#2 150035010#3 150035010#4 150035010#5 150035010#6 -360016685 -3933614#3 -3933614#2 -3933614#1 -3933614#0 -602928008 -3933608#2 -3933608#1 -3933608#0 -602928009#3 -602928009#2 -602928009#1 -602928009#0 -600073275#2 -600073275#1 -600073275#0 -668643980#1 -668643980#0 -303827018#1 -303827018#0 -600073270#3 -600073270#2 -600073270#1 -600073270#0 -24041099#3 -24041099#2 -24041099#1 -24041099#0 -283416477#2 -283416477#1 -283416477#0 -283416476#1"/>
        <stop busStop="-874477626" duration="30.00"/>
        <stop busStop="20275975" duration="30.00"/>
        <stop busStop="-18241665" duration="30.00"/>
        <stop busStop="-874512121" duration="30.00"/>
        <stop busStop="-874477620" duration="30.00"/>
    </vehicle>

    <vehicle id="29_bus_N42:1" type="pt_bus" depart="94.00" departLane="0" arrival="442.00">
        <route edges="640655568#1 418182139#1"/>
        <stop busStop="4186356396" duration="30.00"/>
        <stop busStop="4186356390" duration="30.00"/>
    </vehicle>

    <vehicle id="67_bus_61:0" type="pt_bus" depart="0.00" departLane="0" arrival="463.00">
        <route edges="-540190677 -26263195#0 25460405 -26245946#1 -26245946#0 548626550 36989717#0 36989717#1 -288806325#1 -288806325#0 288806325#0 288806325#1 36989666 548626555 36990049#0 36990049#1 26245946#0 26245946#1 -26245946#1 -26245946#0 548626550 36989717#0 36989717#1 -288806325#1 -288806325#0 -288808359 -5783099#2 -5783099#1 -5783099#0 5782992#0 5782992#1 288806326#0 288806326#1 288806326#2 317544600#0 317544600#1 317544600#2 317544600#3 548669410#1 548669406 548669409 29462349#1 -548813064#1 -548813064#0 -431444780#2 -431444780#1 -431444780#0 -431444776"/>
        <stop busStop="-5226460705" duration="30.00"/>
        <stop busStop="430160899" duration="30.00"/>
        <stop busStop="282837104" duration="30.00"/>
        <stop busStop="5300400686" duration="30.00"/>
        <stop busStop="895825813" duration="30.00"/>
        <stop busStop="-269253233" duration="30.00"/>
    </vehicle>

    <vehicle id="92_train_S2:0" type="pt_train" depart="0.00" departLane="0" arrival="464.00">
        <route edges="70383862 22726731#1 285859823 316094401#0 316094401#1 277766717 27499780 674949031"/>
        <stop busStop="3221999872" duration="30.00"/>
        <stop busStop="3221999879" duration="30.00"/>
        <stop busStop="3086128376" duration="30.00"/>
    </vehicle>

    <vehicle id="66_bus_805:0" type="pt_bus" depart="0.00" departLane="0" arrival="472.00">
        <route edges="138710576#1 1012479224#1 1080801855 399275671 520823702#0 520823702#1 161962606#0 161962606#1 417876205 1072618449 1012479206#0 1012479206#1 1012479206#2 75093816#0 75093816#1 75093816#2 417876213 1101383660 417876203 417870858#0 417870858#1 162909779#0 162909779#1 417870861 25638635#0 25638635#1 25638635#2 25638635#3 25638635#4 25638635#5 25638635#6 25638635#7 25638635#8 25638637 197865915#0 197865915#1 220796146 67512037#0 67512037#1 25638634 378814499 386242845 1020619315 -240146294 -25996791#1 -25996791#0 -240146296 146172233#0 146172233#1 146172233#2 -955837995 -146172229#1 -146172229#0 -955837996 -955837997#1 -955837997#0 30967868 1011538269 385856224#0 385856224#1 385856224#2 1011538270#0 1011538270#1 146180586#0 146180586#1 883913478#0 883913478#1 146180587#0 146180587#1"/>
        <stop busStop="2426071390" duration="30.00"/>
        <stop busStop="1747021575" duration="30.00"/>
        <stop busStop="4020090619" duration="30.00"/>
    </vehicle>

    <vehicle id="83_bus_X3:0" type="pt_bus" depart="6.00" departLane="0" arrival="501.00">
        <route edges="32321314 295388333#0 295388333#1 295388333#2 445745928 807733012#0 807733012#1 807733011 807733010 807733009 295388336#0 295388336#1 295388336#2 807733008 44701706#0 44701706#1 44701706#2 295388332 53563538#0 53563538#1 481105341#0 481105341#1 951782113 951782114#0 951782114#1 244610004 244609997#0 244609997#1 244609994 244609999#0 244609999#1 244610009 815721630#0 815721630#1 295388335#0 295388335#1 815721629 466414739#0 466414739#1 295514865#0 295514865#1 295514865#2 244610006 244609998#0 244609998#1 244609998#2 102064139 15957076 234353520 244609995 244610003#0 244610003#1 70215349 -32995081 -117552380 454823277 13857411#0 13857411#1 13857411#2 454823276 454823274 117553007#0 117553007#1 117553007#2 234353516 13857409 151404892 323994813#0 323994813#1 323994809 25638636#0 25638636#1 324004821 323994805#0 323994805#1 323994805#2 61012124#0 61012124#1 61012124#2 61012124#3"/>
        <stop busStop="2426071392" duration="30.00"/>
        <stop busStop="296297482" duration="30.00"/>
    </vehicle>

    <vehicle id="177_bus_140:1" type="pt_bus" depart="0.00" departLane="0" arrival="529.00">
        <route edges="183419042#0 183419042#1 183419042#2 183419042#3 183419042#4 183419042#5 183419042#6 183419042#7 183419042#8 183419042#9 183419042#10 183419042#11 273990570 273990571#0 273990571#1 273990571#2 273990571#3 273990571#4 273990571#5 273990571#6 4811453#0 4811453#1 4811453#2 4811453#3 4811453#4 4811453#5 4811453#6 4811453#7 -275526211 -4807837#2 -4807837#1 -4807837#0 -54883018#3 -54883018#2 -54883018#1 -54883018#0 -693946719#1 -693946719#0 -178668743 -202630135 -387401256#1 -387401256#0 -290577631 -169218302#1 -169218302#0 -54883015 -290577629#1 -290577629#0 -17097227 -109592895 350217704#0 350217704#1 350217704#2 350217704#3 350217704#4 387401257 31787956 911970184 911970185 939228251 178668745 -332292229 268558821#0 268558821#1"/>
        <stop busStop="434308192" duration="30.00"/>
        <stop busStop="-2626499005" duration="30.00"/>
        <stop busStop="1254192526" duration="30.00"/>
        <stop busStop="3566577205" duration="30.00"/>
    </vehicle>

    <vehicle id="81_bus_027:0" type="pt_bus" depart="131.00" departLane="0" arrival="545.00">
        <route edges="640655568#1 418182139#1"/>
        <stop busStop="4186356408" duration="30.00"/>
        <stop busStop="4186356402" duration="30.00"/>
        <stop busStop="4186356400" duration="30.00"/>
        <stop busStop="4186356390" duration="30.00"/>
        <stop busStop="4186355782" duration="30.00"/>
        <stop busStop="4186355762" duration="30.00"/>
    </vehicle>

    <vehicle id="188_bus_110:2" type="pt_bus" depart="169.00" departLane="0" arrival="551.00">
        <route edges="640655568#1 418182139#1"/>
        <stop busStop="4186356396" duration="30.00"/>
        <stop busStop="4186356390" duration="30.00"/>
    </vehicle>

    <vehicle id="93_train_S3:0" type="pt_train" depart="79.00" departLane="0" arrival="565.00">
        <route edges="70383862 27472931"/>
        <stop busStop="3221999872" duration="30.00"/>
        <stop busStop="301647801" duration="30.00"/>
    </vehicle>

    <vehicle id="117_train_S2:1" type="pt_train" depart="0.00" departLane="0" arrival="566.00">
        <route edges="205986028 27472931 277766716#0 277766716#1 277766716#3 316094402 27472810#1"/>
        <stop busStop="301648591" duration="30.00"/>
        <stop busStop="301647801" duration="30.00"/>
        <stop busStop="301914553" duration="30.00"/>
    </vehicle>

    <vehicle id="36_bus_806:0" type="pt_bus" depart="0.00" departLane="0" arrival="571.00">
        <route edges="32321314 295388333#0 295388333#1 295388333#2 445745928 807733012#0 807733012#1 807733011 807733010 807733009 295388336#0 295388336#1 295388336#2 807733008 44701706#0 44701706#1 44701706#2 295388332 53563538#0 53563538#1 481105341#0 481105341#1 951782113 951782114#0 951782114#1 244610004 244609997#0 244609997#1 244609994 244609999#0 244609999#1 244610009 815721630#0 815721630#1 295388335#0 295388335#1 815721629 466414739#0 466414739#1 295514865#0 295514865#1 295514865#2 244610006 99925888#0 99925888#1 99925888#2 455395620 1025932098 466414726 631635489 631635488 418182185 418182190#0 418182190#1 466414741#1 466414741#2 631635487 418182184 631635486 418182152 1019173181#0 1019173181#1 295514865#0 295514865#1 295514865#2 244610006 99925888#0 99925888#1 99925888#2 455395620 1025932098 466414726 631635489 631635488 418182185 418182190#0 418182190#1 466414741#1 466414741#2 631635487 418182184 631635486 418182152 1019173181#0 1019173181#1 295514865#0 295514865#1 295514865#2 244610006 244609998#0 244609998#1 244609998#2 102064139 10476311 53563541 102064136#0 102064136#1 102064136#2 102064136#3 815721632 815721631 244610002#0 244610002#1 244610008#1 244610008#2 244610008#3 815721627 244610010#0 244610010#1 244610010#2 244609996 244610007#0 244610007#1 244610007#2 1012208421 244610001#0 244610001#1 1012208422#0 1012208422#1 195171732#0 195171732#1 295388334#0 295388334#1 481105336 346011487#0 346011487#1 937863187"/>
        <stop busStop="2426071392" duration="30.00"/>
        <stop busStop="4186355742" duration="30.00"/>
        <stop busStop="9617181967" duration="30.00"/>
        <stop busStop="160368616" duration="30.00"/>
    </vehicle>

    <vehicle id="200_bus_N950:0" type="pt_bus" depart="239.00" departLane="0" arrival="589.00">
        <route edges="640655568#1 418182139#1"/>
        <stop busStop="4186356396" duration="30.00"/>
        <stop busStop="4186355782" duration="30.00"/>
    </vehicle>

    <vehicle id="105_bus_70:0" type="pt_bus" depart="5.00" departLane="0" arrival="593.00">
        <route edges="686700935 686700934#1 25436993#1 25436993#2 25436993#3 25436993#4 25436993#5 25436993#6 25436993#7 -25436993#7 25436993#7 -563908556 -563894574 -4067131#4 -4067131#3 -4067131#2 -4067131#1 -4067131#0 4067131#0 -4067131#0 -563908546 -563908550#2 -563908550#1 -563908550#0 4066979#0 4066979#1 4066979#2 4066979#3 4066979#4 -4066979#4 4066979#4"/>
        <stop busStop="154657074" duration="30.00"/>
        <stop busStop="291000066" duration="30.00"/>
        <stop busStop="440873765" duration="30.00"/>
        <stop busStop="291686818" duration="30.00"/>
        <stop busStop="-440873767" duration="30.00"/>
        <stop busStop="-293635463" duration="30.00"/>
        <stop busStop="440873764" duration="30.00"/>
        <stop busStop="293636787" duration="30.00"/>
    </vehicle>

    <vehicle id="42_bus_X82:1" type="pt_bus" depart="0.00" departLane="0" arrival="608.00">
        <route edges="418182190#1 466414741#1 466414741#2 631635487 418182184 631635486 418182152 1019173181#0 1019173181#1 295514865#0 295514865#1 295514865#2 244610006 99925888#0 99925888#1 99925888#2 455395620 1025932098 466414726 631635489 631635488 418182185 418182190#0 418182190#1 466414741#1 466414741#2 631635487 418182184 631635486 418182152 1019173181#0 1019173181#1 295514865#0 295514865#1 295514865#2 244610006 244609998#0 244609998#1 244609998#2 102064139 10476311 53563541 102064136#0 102064136#1 102064136#2 102064136#3 815721632 815721631 244610002#0 244610002#1 244610008#1 244610008#2 244610008#3 815721627 244610010#0 244610010#1 244610010#2 244609996 244610007#0 244610007#1 244610007#2 1012208421 244610001#0 244610001#1 1012208422#0 1012208422#1 195171732#0 195171732#1 295388334#0 295388334#1 481105336 346011487#0 346011487#1 937863187 445745930#0 445745930#1 44701707#0 44701707#1 32321315#0 32321315#1 1012208462#0 1012208462#1 1012208461 331111321#0 331111321#1 11551603 1012208467#0 1012208467#1 32321312 1012208465 53565077 -11551606 -5364796 1012208474 1026112657 -231420940 -1012208463 -1012208470 1012208469 80530885#0 80530885#1 80530885#2 231420939#0 231420939#1"/>
        <stop busStop="4186355723" duration="30.00"/>
        <stop busStop="9617181968" duration="30.00"/>
        <stop busStop="160368616" duration="30.00"/>
        <stop busStop="9460593112" duration="30.00"/>
    </vehicle>

    <vehicle id="78_bus_121:0" type="pt_bus" depart="0.00" departLane="0" arrival="611.00">
        <route edges="-392589607#0 -27531049#5 -27531049#4 -27531049#3 -27531049#2 -27531049#1 -27531049#0 44459823#0 44459823#1 44459823#2 207083330 -44459774#3 -44459774#2 -44459774#1 -44459774#0 94166203#1 -24447786#1 -24447786#0 -24447783#0 207210285#0 207210285#1 52595630#0 52595630#1 130569449 207210670#0 207210670#1 207210670#2 384972986 392589606#0 392589606#1 22793479 613671973 613671974 207083328#0 207083328#1 207083328#2 28675677 22793492#0 22793492#1 22793492#2 22793492#3"/>
        <stop busStop="-245017149" duration="30.00"/>
        <stop busStop="-3883265541" duration="30.00"/>
        <stop busStop="-3883265532" duration="30.00"/>
        <stop busStop="-3883265542" duration="30.00"/>
        <stop busStop="3883265543" duration="30.00"/>
        <stop busStop="3883265527" duration="30.00"/>
        <stop busStop="3883265546" duration="30.00"/>
    </vehicle>

    <vehicle id="215_light_rail_U15:3" type="pt_light_rail" depart="337.00" departLane="0" arrival="614.00">
        <route edges="231118034#0 231118034#1 231118034#2 231118034#3 231118034#4 316529558#1 316529558#2 316529558#3 316529558#4 316529558#5 316529558#6 316529558#7 231118010 231117987 231118031#0 231118031#2 36536870#0 36536870#1 36536870#2 36536870#3 36536870#4 36536870#5"/>
        <stop busStop="2355847726" duration="30.00"/>
        <stop busStop="726825677" duration="30.00"/>
        <stop busStop="279898521" duration="30.00"/>
        <stop busStop="279898448" duration="30.00"/>
    </vehicle>

    <vehicle id="220_bus_306:0" type="pt_bus" depart="549.00" departLane="0" arrival="627.00">
        <route edges="418182139#1"/>
        <stop busStop="4186356390" duration="30.00"/>
        <stop busStop="4186355762" duration="30.00"/>
    </vehicle>

    <vehicle id="208_bus_71:4" type="pt_bus" depart="145.00" departLane="0" arrival="638.00">
        <route edges="686700935 686700934#1 25436993#1 25436993#2 25436993#3 25436993#4 25436993#5 25436993#6 25436993#7 -25436993#7 25436993#7 -563908556 -563894574 -4067131#4 -4067131#3 -4067131#2 -4067131#1 -4067131#0 4067131#0 -4067131#0"/>
        <stop busStop="154657074" duration="30.00"/>
        <stop busStop="291000066" duration="30.00"/>
        <stop busStop="440873765" duration="30.00"/>
        <stop busStop="291686818" duration="30.00"/>
        <stop busStop="-440873767" duration="30.00"/>
        <stop busStop="-293635463" duration="30.00"/>
    </vehicle>

    <vehicle id="43_bus_828:0" type="pt_bus" depart="6.00" departLane="0" arrival="645.00">
        <route edges="418182190#1 466414741#1 466414741#2 631635487 418182184 631635486 418182152 1019173181#0 1019173181#1 295514865#0 295514865#1 295514865#2 244610006 99925888#0 99925888#1 99925888#2 455395620 1025932098 466414726 631635489 631635488 418182185 418182190#0 418182190#1 466414741#1 466414741#2 631635487 418182184 631635486 418182152 1019173181#0 1019173181#1 295514865#0 295514865#1 295514865#2 244610006 244609998#0 244609998#1 244609998#2 102064139 10476311 53563541 102064136#0 102064136#1 102064136#2 102064136#3 815721632 815721631 244610002#0 244610002#1 244610008#1 244610008#2 244610008#3 815721627 244610010#0 244610010#1 244610010#2 244609996 244610007#0 244610007#1 244610007#2 1012208421 244610001#0 244610001#1 1012208422#0 1012208422#1 195171732#0 195171732#1 295388334#0 295388334#1 481105336 346011487#0 346011487#1 937863187 445745930#0 445745930#1 44701707#0 44701707#1 32321315#0 32321315#1 1012208462#0 1012208462#1 1012208461 331111321#0 331111321#1 11551603 1012208467#0 1012208467#1 32321312 1012208465 53565077 -11551606 -5364796 1012208474 1026112657 -231420940 -1012208463 -1012208470 1012208469 80530885#0 80530885#1 80530885#2 231420939#0 231420939#1"/>
        <stop busStop="4186355723" duration="30.00"/>
        <stop busStop="9617181968" duration="30.00"/>
        <stop busStop="160368616" duration="30.00"/>
        <stop busStop="9460593112" duration="30.00"/>
    </vehicle>

    <vehicle id="195_light_rail_U5:1" type="pt_light_rail" depart="387.00" departLane="0" arrival="658.00">
        <route edges="37538568#1 229329611 40928226#0 40928226#1 40928225 30015492#0 30015492#1 30015492#2 229329604#0 229329604#1 229329604#2"/>
        <stop busStop="498454613" duration="30.00"/>
        <stop busStop="280139053" duration="30.00"/>
        <stop busStop="20968183" duration="30.00"/>
    </vehicle>

    <vehicle id="201_bus_N950:1" type="pt_bus" depart="278.00" departLane="0" arrival="665.00">
        <route edges="640655568#1 418182139#1"/>
        <stop busStop="4186356396" duration="30.00"/>
        <stop busStop="4186355782" duration="30.00"/>
    </vehicle>

    <vehicle id="27_bus_236:1" type="pt_bus" depart="83.00" departLane="0" arrival="666.00">
        <route edges="640655568#1 418182139#1 658597944#1 631635486 418182152 1019173181#0 1019173181#1 295514865#0 295514865#1 295514865#2 244610006 99925888#0 99925888#1 99925888#2 455395620 1025932098 466414726 631635489 418182150 640655568#1"/>
        <stop busStop="4186356396" duration="30.00"/>
        <stop busStop="4186356400" duration="30.00"/>
    </vehicle>

    <vehicle id="107_bus_71:2" type="pt_bus" depart="75.00" departLane="0" arrival="679.00">
        <route edges="686700935 686700934#1 25436993#1 25436993#2 25436993#3 25436993#4 25436993#5 25436993#6 25436993#7 -25436993#7 25436993#7 -563908556 -563894574 -4067131#4 -4067131#3 -4067131#2 -4067131#1 -4067131#0 4067131#0 -4067131#0 -563908546 -563908550#2 -563908550#1 -563908550#0 4066979#0 4066979#1 4066979#2 4066979#3 4066979#4 -4066979#4 4066979#4"/>
        <stop busStop="154657074" duration="30.00"/>
        <stop busStop="291000066" duration="30.00"/>